+ 0.2 39 9 cbr 1000 ------- 1 39.0 73.0 0 0
- 0.2 39 9 cbr 1000 ------- 1 39.0 73.0 0 0
+ 0.2 39 9 cbr 518 ------- 1 39.0 73.0 1 1
+ 0.2 15 5 cbr 1000 ------- 1 15.0 52.0 0 2
- 0.2 15 5 cbr 1000 ------- 1 15.0 52.0 0 2
+ 0.2 15 5 cbr 518 ------- 1 15.0 52.0 1 3
+ 0.2 14 4 cbr 1000 ------- 1 14.0 73.0 0 4
- 0.2 14 4 cbr 1000 ------- 1 14.0 73.0 0 4
+ 0.2 14 4 cbr 518 ------- 1 14.0 73.0 1 5
+ 0.2 62 2 cbr 1000 ------- 1 62.0 52.0 0 6
- 0.2 62 2 cbr 1000 ------- 1 62.0 52.0 0 6
+ 0.2 62 2 cbr 518 ------- 1 62.0 52.0 1 7
+ 0.2 39 9 cbr 1000 ------- 1 39.1 73.0 0 8
+ 0.2 39 9 cbr 518 ------- 1 39.1 73.0 1 9
+ 0.2 79 9 cbr 1000 ------- 1 79.0 52.0 0 10
- 0.2 79 9 cbr 1000 ------- 1 79.0 52.0 0 10
+ 0.2 79 9 cbr 518 ------- 1 79.0 52.0 1 11
+ 0.2 49 9 cbr 1000 ------- 1 49.0 73.0 0 12
- 0.2 49 9 cbr 1000 ------- 1 49.0 73.0 0 12
+ 0.2 49 9 cbr 518 ------- 1 49.0 73.0 1 13
+ 0.2 64 4 cbr 1000 ------- 1 64.0 52.0 0 14
- 0.2 64 4 cbr 1000 ------- 1 64.0 52.0 0 14
+ 0.2 64 4 cbr 518 ------- 1 64.0 52.0 1 15
+ 0.2 47 7 cbr 1000 ------- 1 47.0 73.0 0 16
- 0.2 47 7 cbr 1000 ------- 1 47.0 73.0 0 16
+ 0.2 47 7 cbr 518 ------- 1 47.0 73.0 1 17
+ 0.2 55 5 cbr 1000 ------- 1 55.0 52.0 0 18
- 0.2 55 5 cbr 1000 ------- 1 55.0 52.0 0 18
+ 0.2 55 5 cbr 518 ------- 1 55.0 52.0 1 19
- 0.20008 39 9 cbr 518 ------- 1 39.0 73.0 1 1
- 0.20008 15 5 cbr 518 ------- 1 15.0 52.0 1 3
- 0.20008 14 4 cbr 518 ------- 1 14.0 73.0 1 5
- 0.20008 62 2 cbr 518 ------- 1 62.0 52.0 1 7
- 0.20008 79 9 cbr 518 ------- 1 79.0 52.0 1 11
- 0.20008 49 9 cbr 518 ------- 1 49.0 73.0 1 13
- 0.20008 64 4 cbr 518 ------- 1 64.0 52.0 1 15
- 0.20008 47 7 cbr 518 ------- 1 47.0 73.0 1 17
- 0.20008 55 5 cbr 518 ------- 1 55.0 52.0 1 19
- 0.200121 39 9 cbr 1000 ------- 1 39.1 73.0 0 8
- 0.200201 39 9 cbr 518 ------- 1 39.1 73.0 1 9
r 0.21008 39 9 cbr 1000 ------- 1 39.0 73.0 0 0
+ 0.21008 9 0 cbr 1000 ------- 1 39.0 73.0 0 0
- 0.21008 9 0 cbr 1000 ------- 1 39.0 73.0 0 0
r 0.21008 15 5 cbr 1000 ------- 1 15.0 52.0 0 2
+ 0.21008 5 0 cbr 1000 ------- 1 15.0 52.0 0 2
- 0.21008 5 0 cbr 1000 ------- 1 15.0 52.0 0 2
r 0.21008 14 4 cbr 1000 ------- 1 14.0 73.0 0 4
+ 0.21008 4 0 cbr 1000 ------- 1 14.0 73.0 0 4
- 0.21008 4 0 cbr 1000 ------- 1 14.0 73.0 0 4
r 0.21008 62 2 cbr 1000 ------- 1 62.0 52.0 0 6
+ 0.21008 2 52 cbr 1000 ------- 1 62.0 52.0 0 6
- 0.21008 2 52 cbr 1000 ------- 1 62.0 52.0 0 6
r 0.21008 79 9 cbr 1000 ------- 1 79.0 52.0 0 10
+ 0.21008 9 0 cbr 1000 ------- 1 79.0 52.0 0 10
r 0.21008 49 9 cbr 1000 ------- 1 49.0 73.0 0 12
+ 0.21008 9 0 cbr 1000 ------- 1 49.0 73.0 0 12
r 0.21008 64 4 cbr 1000 ------- 1 64.0 52.0 0 14
+ 0.21008 4 0 cbr 1000 ------- 1 64.0 52.0 0 14
r 0.21008 47 7 cbr 1000 ------- 1 47.0 73.0 0 16
+ 0.21008 7 0 cbr 1000 ------- 1 47.0 73.0 0 16
- 0.21008 7 0 cbr 1000 ------- 1 47.0 73.0 0 16
r 0.21008 55 5 cbr 1000 ------- 1 55.0 52.0 0 18
+ 0.21008 5 0 cbr 1000 ------- 1 55.0 52.0 0 18
- 0.210088 9 0 cbr 1000 ------- 1 79.0 52.0 0 10
- 0.210088 5 0 cbr 1000 ------- 1 55.0 52.0 0 18
- 0.210088 4 0 cbr 1000 ------- 1 64.0 52.0 0 14
- 0.210096 9 0 cbr 1000 ------- 1 49.0 73.0 0 12
r 0.210121 39 9 cbr 518 ------- 1 39.0 73.0 1 1
+ 0.210121 9 0 cbr 518 ------- 1 39.0 73.0 1 1
- 0.210121 9 0 cbr 518 ------- 1 39.0 73.0 1 1
r 0.210121 15 5 cbr 518 ------- 1 15.0 52.0 1 3
+ 0.210121 5 0 cbr 518 ------- 1 15.0 52.0 1 3
- 0.210121 5 0 cbr 518 ------- 1 15.0 52.0 1 3
r 0.210121 14 4 cbr 518 ------- 1 14.0 73.0 1 5
+ 0.210121 4 0 cbr 518 ------- 1 14.0 73.0 1 5
- 0.210121 4 0 cbr 518 ------- 1 14.0 73.0 1 5
r 0.210121 62 2 cbr 518 ------- 1 62.0 52.0 1 7
+ 0.210121 2 52 cbr 518 ------- 1 62.0 52.0 1 7
r 0.210121 79 9 cbr 518 ------- 1 79.0 52.0 1 11
+ 0.210121 9 0 cbr 518 ------- 1 79.0 52.0 1 11
r 0.210121 49 9 cbr 518 ------- 1 49.0 73.0 1 13
+ 0.210121 9 0 cbr 518 ------- 1 49.0 73.0 1 13
r 0.210121 64 4 cbr 518 ------- 1 64.0 52.0 1 15
+ 0.210121 4 0 cbr 518 ------- 1 64.0 52.0 1 15
r 0.210121 47 7 cbr 518 ------- 1 47.0 73.0 1 17
+ 0.210121 7 0 cbr 518 ------- 1 47.0 73.0 1 17
- 0.210121 7 0 cbr 518 ------- 1 47.0 73.0 1 17
r 0.210121 55 5 cbr 518 ------- 1 55.0 52.0 1 19
+ 0.210121 5 0 cbr 518 ------- 1 55.0 52.0 1 19
- 0.210126 9 0 cbr 518 ------- 1 79.0 52.0 1 11
- 0.210126 5 0 cbr 518 ------- 1 55.0 52.0 1 19
- 0.210126 4 0 cbr 518 ------- 1 64.0 52.0 1 15
- 0.21013 9 0 cbr 518 ------- 1 49.0 73.0 1 13
- 0.21016 2 52 cbr 518 ------- 1 62.0 52.0 1 7
r 0.210201 39 9 cbr 1000 ------- 1 39.1 73.0 0 8
+ 0.210201 9 0 cbr 1000 ------- 1 39.1 73.0 0 8
- 0.210201 9 0 cbr 1000 ------- 1 39.1 73.0 0 8
r 0.210243 39 9 cbr 518 ------- 1 39.1 73.0 1 9
+ 0.210243 9 0 cbr 518 ------- 1 39.1 73.0 1 9
- 0.210243 9 0 cbr 518 ------- 1 39.1 73.0 1 9
r 0.220088 9 0 cbr 1000 ------- 1 39.0 73.0 0 0
+ 0.220088 0 3 cbr 1000 ------- 1 39.0 73.0 0 0
- 0.220088 0 3 cbr 1000 ------- 1 39.0 73.0 0 0
r 0.220088 5 0 cbr 1000 ------- 1 15.0 52.0 0 2
+ 0.220088 0 2 cbr 1000 ------- 1 15.0 52.0 0 2
- 0.220088 0 2 cbr 1000 ------- 1 15.0 52.0 0 2
r 0.220088 4 0 cbr 1000 ------- 1 14.0 73.0 0 4
+ 0.220088 0 3 cbr 1000 ------- 1 14.0 73.0 0 4
r 0.220088 7 0 cbr 1000 ------- 1 47.0 73.0 0 16
+ 0.220088 0 3 cbr 1000 ------- 1 47.0 73.0 0 16
r 0.220096 9 0 cbr 1000 ------- 1 79.0 52.0 0 10
+ 0.220096 0 2 cbr 1000 ------- 1 79.0 52.0 0 10
r 0.220096 5 0 cbr 1000 ------- 1 55.0 52.0 0 18
+ 0.220096 0 2 cbr 1000 ------- 1 55.0 52.0 0 18
r 0.220096 4 0 cbr 1000 ------- 1 64.0 52.0 0 14
+ 0.220096 0 2 cbr 1000 ------- 1 64.0 52.0 0 14
- 0.220096 0 3 cbr 1000 ------- 1 14.0 73.0 0 4
- 0.220096 0 2 cbr 1000 ------- 1 79.0 52.0 0 10
r 0.220104 9 0 cbr 1000 ------- 1 49.0 73.0 0 12
+ 0.220104 0 3 cbr 1000 ------- 1 49.0 73.0 0 12
- 0.220104 0 3 cbr 1000 ------- 1 47.0 73.0 0 16
- 0.220104 0 2 cbr 1000 ------- 1 55.0 52.0 0 18
- 0.220112 0 3 cbr 1000 ------- 1 49.0 73.0 0 12
- 0.220112 0 2 cbr 1000 ------- 1 64.0 52.0 0 14
r 0.220126 9 0 cbr 518 ------- 1 39.0 73.0 1 1
+ 0.220126 0 3 cbr 518 ------- 1 39.0 73.0 1 1
- 0.220126 0 3 cbr 518 ------- 1 39.0 73.0 1 1
r 0.220126 5 0 cbr 518 ------- 1 15.0 52.0 1 3
+ 0.220126 0 2 cbr 518 ------- 1 15.0 52.0 1 3
- 0.220126 0 2 cbr 518 ------- 1 15.0 52.0 1 3
r 0.220126 4 0 cbr 518 ------- 1 14.0 73.0 1 5
+ 0.220126 0 3 cbr 518 ------- 1 14.0 73.0 1 5
r 0.220126 7 0 cbr 518 ------- 1 47.0 73.0 1 17
+ 0.220126 0 3 cbr 518 ------- 1 47.0 73.0 1 17
r 0.22013 9 0 cbr 518 ------- 1 79.0 52.0 1 11
+ 0.22013 0 2 cbr 518 ------- 1 79.0 52.0 1 11
r 0.22013 5 0 cbr 518 ------- 1 55.0 52.0 1 19
+ 0.22013 0 2 cbr 518 ------- 1 55.0 52.0 1 19
r 0.22013 4 0 cbr 518 ------- 1 64.0 52.0 1 15
+ 0.22013 0 2 cbr 518 ------- 1 64.0 52.0 1 15
- 0.22013 0 3 cbr 518 ------- 1 14.0 73.0 1 5
- 0.22013 0 2 cbr 518 ------- 1 79.0 52.0 1 11
r 0.220134 9 0 cbr 518 ------- 1 49.0 73.0 1 13
+ 0.220134 0 3 cbr 518 ------- 1 49.0 73.0 1 13
- 0.220134 0 3 cbr 518 ------- 1 47.0 73.0 1 17
- 0.220134 0 2 cbr 518 ------- 1 55.0 52.0 1 19
- 0.220138 0 3 cbr 518 ------- 1 49.0 73.0 1 13
- 0.220138 0 2 cbr 518 ------- 1 64.0 52.0 1 15
r 0.22016 2 52 cbr 1000 ------- 1 62.0 52.0 0 6
r 0.220201 2 52 cbr 518 ------- 1 62.0 52.0 1 7
r 0.220209 9 0 cbr 1000 ------- 1 39.1 73.0 0 8
+ 0.220209 0 3 cbr 1000 ------- 1 39.1 73.0 0 8
- 0.220209 0 3 cbr 1000 ------- 1 39.1 73.0 0 8
r 0.220247 9 0 cbr 518 ------- 1 39.1 73.0 1 9
+ 0.220247 0 3 cbr 518 ------- 1 39.1 73.0 1 9
- 0.220247 0 3 cbr 518 ------- 1 39.1 73.0 1 9
r 0.230096 0 3 cbr 1000 ------- 1 39.0 73.0 0 0
+ 0.230096 3 73 cbr 1000 ------- 1 39.0 73.0 0 0
- 0.230096 3 73 cbr 1000 ------- 1 39.0 73.0 0 0
r 0.230096 0 2 cbr 1000 ------- 1 15.0 52.0 0 2
+ 0.230096 2 52 cbr 1000 ------- 1 15.0 52.0 0 2
- 0.230096 2 52 cbr 1000 ------- 1 15.0 52.0 0 2
r 0.230104 0 3 cbr 1000 ------- 1 14.0 73.0 0 4
+ 0.230104 3 73 cbr 1000 ------- 1 14.0 73.0 0 4
r 0.230104 0 2 cbr 1000 ------- 1 79.0 52.0 0 10
+ 0.230104 2 52 cbr 1000 ------- 1 79.0 52.0 0 10
r 0.230112 0 3 cbr 1000 ------- 1 47.0 73.0 0 16
+ 0.230112 3 73 cbr 1000 ------- 1 47.0 73.0 0 16
r 0.230112 0 2 cbr 1000 ------- 1 55.0 52.0 0 18
+ 0.230112 2 52 cbr 1000 ------- 1 55.0 52.0 0 18
r 0.23012 0 3 cbr 1000 ------- 1 49.0 73.0 0 12
+ 0.23012 3 73 cbr 1000 ------- 1 49.0 73.0 0 12
r 0.23012 0 2 cbr 1000 ------- 1 64.0 52.0 0 14
+ 0.23012 2 52 cbr 1000 ------- 1 64.0 52.0 0 14
r 0.23013 0 3 cbr 518 ------- 1 39.0 73.0 1 1
+ 0.23013 3 73 cbr 518 ------- 1 39.0 73.0 1 1
r 0.23013 0 2 cbr 518 ------- 1 15.0 52.0 1 3
+ 0.23013 2 52 cbr 518 ------- 1 15.0 52.0 1 3
r 0.230134 0 3 cbr 518 ------- 1 14.0 73.0 1 5
+ 0.230134 3 73 cbr 518 ------- 1 14.0 73.0 1 5
r 0.230134 0 2 cbr 518 ------- 1 79.0 52.0 1 11
+ 0.230134 2 52 cbr 518 ------- 1 79.0 52.0 1 11
r 0.230138 0 3 cbr 518 ------- 1 47.0 73.0 1 17
+ 0.230138 3 73 cbr 518 ------- 1 47.0 73.0 1 17
r 0.230138 0 2 cbr 518 ------- 1 55.0 52.0 1 19
+ 0.230138 2 52 cbr 518 ------- 1 55.0 52.0 1 19
r 0.230142 0 3 cbr 518 ------- 1 49.0 73.0 1 13
+ 0.230142 3 73 cbr 518 ------- 1 49.0 73.0 1 13
r 0.230142 0 2 cbr 518 ------- 1 64.0 52.0 1 15
+ 0.230142 2 52 cbr 518 ------- 1 64.0 52.0 1 15
- 0.230176 3 73 cbr 1000 ------- 1 14.0 73.0 0 4
- 0.230176 2 52 cbr 1000 ------- 1 79.0 52.0 0 10
r 0.230217 0 3 cbr 1000 ------- 1 39.1 73.0 0 8
+ 0.230217 3 73 cbr 1000 ------- 1 39.1 73.0 0 8
r 0.230251 0 3 cbr 518 ------- 1 39.1 73.0 1 9
+ 0.230251 3 73 cbr 518 ------- 1 39.1 73.0 1 9
- 0.230256 3 73 cbr 1000 ------- 1 47.0 73.0 0 16
- 0.230256 2 52 cbr 1000 ------- 1 55.0 52.0 0 18
- 0.230336 3 73 cbr 1000 ------- 1 49.0 73.0 0 12
- 0.230336 2 52 cbr 1000 ------- 1 64.0 52.0 0 14
- 0.230416 3 73 cbr 518 ------- 1 39.0 73.0 1 1
- 0.230416 2 52 cbr 518 ------- 1 15.0 52.0 1 3
- 0.230457 3 73 cbr 518 ------- 1 14.0 73.0 1 5
- 0.230457 2 52 cbr 518 ------- 1 79.0 52.0 1 11
- 0.230499 3 73 cbr 518 ------- 1 47.0 73.0 1 17
- 0.230499 2 52 cbr 518 ------- 1 55.0 52.0 1 19
- 0.23054 3 73 cbr 518 ------- 1 49.0 73.0 1 13
- 0.23054 2 52 cbr 518 ------- 1 64.0 52.0 1 15
- 0.230582 3 73 cbr 1000 ------- 1 39.1 73.0 0 8
- 0.230662 3 73 cbr 518 ------- 1 39.1 73.0 1 9
r 0.240176 3 73 cbr 1000 ------- 1 39.0 73.0 0 0
r 0.240176 2 52 cbr 1000 ------- 1 15.0 52.0 0 2
r 0.240256 3 73 cbr 1000 ------- 1 14.0 73.0 0 4
r 0.240256 2 52 cbr 1000 ------- 1 79.0 52.0 0 10
r 0.240336 3 73 cbr 1000 ------- 1 47.0 73.0 0 16
r 0.240336 2 52 cbr 1000 ------- 1 55.0 52.0 0 18
r 0.240416 3 73 cbr 1000 ------- 1 49.0 73.0 0 12
r 0.240416 2 52 cbr 1000 ------- 1 64.0 52.0 0 14
r 0.240457 3 73 cbr 518 ------- 1 39.0 73.0 1 1
r 0.240457 2 52 cbr 518 ------- 1 15.0 52.0 1 3
r 0.240499 3 73 cbr 518 ------- 1 14.0 73.0 1 5
r 0.240499 2 52 cbr 518 ------- 1 79.0 52.0 1 11
r 0.24054 3 73 cbr 518 ------- 1 47.0 73.0 1 17
r 0.24054 2 52 cbr 518 ------- 1 55.0 52.0 1 19
r 0.240582 3 73 cbr 518 ------- 1 49.0 73.0 1 13
r 0.240582 2 52 cbr 518 ------- 1 64.0 52.0 1 15
r 0.240662 3 73 cbr 1000 ------- 1 39.1 73.0 0 8
r 0.240703 3 73 cbr 518 ------- 1 39.1 73.0 1 9
+ 0.3 39 9 cbr 1000 ------- 1 39.0 73.0 2 20
- 0.3 39 9 cbr 1000 ------- 1 39.0 73.0 2 20
+ 0.3 39 9 cbr 518 ------- 1 39.0 73.0 3 21
+ 0.3 15 5 cbr 1000 ------- 1 15.0 52.0 2 22
- 0.3 15 5 cbr 1000 ------- 1 15.0 52.0 2 22
+ 0.3 15 5 cbr 518 ------- 1 15.0 52.0 3 23
+ 0.3 14 4 cbr 1000 ------- 1 14.0 73.0 2 24
- 0.3 14 4 cbr 1000 ------- 1 14.0 73.0 2 24
+ 0.3 14 4 cbr 518 ------- 1 14.0 73.0 3 25
+ 0.3 62 2 cbr 1000 ------- 1 62.0 52.0 2 26
- 0.3 62 2 cbr 1000 ------- 1 62.0 52.0 2 26
+ 0.3 62 2 cbr 518 ------- 1 62.0 52.0 3 27
+ 0.3 39 9 cbr 1000 ------- 1 39.1 73.0 2 28
+ 0.3 39 9 cbr 518 ------- 1 39.1 73.0 3 29
+ 0.3 79 9 cbr 1000 ------- 1 79.0 52.0 2 30
- 0.3 79 9 cbr 1000 ------- 1 79.0 52.0 2 30
+ 0.3 79 9 cbr 518 ------- 1 79.0 52.0 3 31
+ 0.3 49 9 cbr 1000 ------- 1 49.0 73.0 2 32
- 0.3 49 9 cbr 1000 ------- 1 49.0 73.0 2 32
+ 0.3 49 9 cbr 518 ------- 1 49.0 73.0 3 33
+ 0.3 64 4 cbr 1000 ------- 1 64.0 52.0 2 34
- 0.3 64 4 cbr 1000 ------- 1 64.0 52.0 2 34
+ 0.3 64 4 cbr 518 ------- 1 64.0 52.0 3 35
+ 0.3 47 7 cbr 1000 ------- 1 47.0 73.0 2 36
- 0.3 47 7 cbr 1000 ------- 1 47.0 73.0 2 36
+ 0.3 47 7 cbr 518 ------- 1 47.0 73.0 3 37
+ 0.3 55 5 cbr 1000 ------- 1 55.0 52.0 2 38
- 0.3 55 5 cbr 1000 ------- 1 55.0 52.0 2 38
+ 0.3 55 5 cbr 518 ------- 1 55.0 52.0 3 39
- 0.30008 39 9 cbr 518 ------- 1 39.0 73.0 3 21
- 0.30008 15 5 cbr 518 ------- 1 15.0 52.0 3 23
- 0.30008 14 4 cbr 518 ------- 1 14.0 73.0 3 25
- 0.30008 62 2 cbr 518 ------- 1 62.0 52.0 3 27
- 0.30008 79 9 cbr 518 ------- 1 79.0 52.0 3 31
- 0.30008 49 9 cbr 518 ------- 1 49.0 73.0 3 33
- 0.30008 64 4 cbr 518 ------- 1 64.0 52.0 3 35
- 0.30008 47 7 cbr 518 ------- 1 47.0 73.0 3 37
- 0.30008 55 5 cbr 518 ------- 1 55.0 52.0 3 39
- 0.300121 39 9 cbr 1000 ------- 1 39.1 73.0 2 28
- 0.300201 39 9 cbr 518 ------- 1 39.1 73.0 3 29
r 0.31008 39 9 cbr 1000 ------- 1 39.0 73.0 2 20
+ 0.31008 9 0 cbr 1000 ------- 1 39.0 73.0 2 20
- 0.31008 9 0 cbr 1000 ------- 1 39.0 73.0 2 20
r 0.31008 15 5 cbr 1000 ------- 1 15.0 52.0 2 22
+ 0.31008 5 0 cbr 1000 ------- 1 15.0 52.0 2 22
- 0.31008 5 0 cbr 1000 ------- 1 15.0 52.0 2 22
r 0.31008 14 4 cbr 1000 ------- 1 14.0 73.0 2 24
+ 0.31008 4 0 cbr 1000 ------- 1 14.0 73.0 2 24
- 0.31008 4 0 cbr 1000 ------- 1 14.0 73.0 2 24
r 0.31008 62 2 cbr 1000 ------- 1 62.0 52.0 2 26
+ 0.31008 2 52 cbr 1000 ------- 1 62.0 52.0 2 26
- 0.31008 2 52 cbr 1000 ------- 1 62.0 52.0 2 26
r 0.31008 79 9 cbr 1000 ------- 1 79.0 52.0 2 30
+ 0.31008 9 0 cbr 1000 ------- 1 79.0 52.0 2 30
r 0.31008 49 9 cbr 1000 ------- 1 49.0 73.0 2 32
+ 0.31008 9 0 cbr 1000 ------- 1 49.0 73.0 2 32
r 0.31008 64 4 cbr 1000 ------- 1 64.0 52.0 2 34
+ 0.31008 4 0 cbr 1000 ------- 1 64.0 52.0 2 34
r 0.31008 47 7 cbr 1000 ------- 1 47.0 73.0 2 36
+ 0.31008 7 0 cbr 1000 ------- 1 47.0 73.0 2 36
- 0.31008 7 0 cbr 1000 ------- 1 47.0 73.0 2 36
r 0.31008 55 5 cbr 1000 ------- 1 55.0 52.0 2 38
+ 0.31008 5 0 cbr 1000 ------- 1 55.0 52.0 2 38
- 0.310088 9 0 cbr 1000 ------- 1 79.0 52.0 2 30
- 0.310088 5 0 cbr 1000 ------- 1 55.0 52.0 2 38
- 0.310088 4 0 cbr 1000 ------- 1 64.0 52.0 2 34
- 0.310096 9 0 cbr 1000 ------- 1 49.0 73.0 2 32
r 0.310121 39 9 cbr 518 ------- 1 39.0 73.0 3 21
+ 0.310121 9 0 cbr 518 ------- 1 39.0 73.0 3 21
- 0.310121 9 0 cbr 518 ------- 1 39.0 73.0 3 21
r 0.310121 15 5 cbr 518 ------- 1 15.0 52.0 3 23
+ 0.310121 5 0 cbr 518 ------- 1 15.0 52.0 3 23
- 0.310121 5 0 cbr 518 ------- 1 15.0 52.0 3 23
r 0.310121 14 4 cbr 518 ------- 1 14.0 73.0 3 25
+ 0.310121 4 0 cbr 518 ------- 1 14.0 73.0 3 25
- 0.310121 4 0 cbr 518 ------- 1 14.0 73.0 3 25
r 0.310121 62 2 cbr 518 ------- 1 62.0 52.0 3 27
+ 0.310121 2 52 cbr 518 ------- 1 62.0 52.0 3 27
r 0.310121 79 9 cbr 518 ------- 1 79.0 52.0 3 31
+ 0.310121 9 0 cbr 518 ------- 1 79.0 52.0 3 31
r 0.310121 49 9 cbr 518 ------- 1 49.0 73.0 3 33
+ 0.310121 9 0 cbr 518 ------- 1 49.0 73.0 3 33
r 0.310121 64 4 cbr 518 ------- 1 64.0 52.0 3 35
+ 0.310121 4 0 cbr 518 ------- 1 64.0 52.0 3 35
r 0.310121 47 7 cbr 518 ------- 1 47.0 73.0 3 37
+ 0.310121 7 0 cbr 518 ------- 1 47.0 73.0 3 37
- 0.310121 7 0 cbr 518 ------- 1 47.0 73.0 3 37
r 0.310121 55 5 cbr 518 ------- 1 55.0 52.0 3 39
+ 0.310121 5 0 cbr 518 ------- 1 55.0 52.0 3 39
- 0.310126 9 0 cbr 518 ------- 1 79.0 52.0 3 31
- 0.310126 5 0 cbr 518 ------- 1 55.0 52.0 3 39
- 0.310126 4 0 cbr 518 ------- 1 64.0 52.0 3 35
- 0.31013 9 0 cbr 518 ------- 1 49.0 73.0 3 33
- 0.31016 2 52 cbr 518 ------- 1 62.0 52.0 3 27
r 0.310201 39 9 cbr 1000 ------- 1 39.1 73.0 2 28
+ 0.310201 9 0 cbr 1000 ------- 1 39.1 73.0 2 28
- 0.310201 9 0 cbr 1000 ------- 1 39.1 73.0 2 28
r 0.310243 39 9 cbr 518 ------- 1 39.1 73.0 3 29
+ 0.310243 9 0 cbr 518 ------- 1 39.1 73.0 3 29
- 0.310243 9 0 cbr 518 ------- 1 39.1 73.0 3 29
r 0.320088 9 0 cbr 1000 ------- 1 39.0 73.0 2 20
+ 0.320088 0 3 cbr 1000 ------- 1 39.0 73.0 2 20
- 0.320088 0 3 cbr 1000 ------- 1 39.0 73.0 2 20
r 0.320088 5 0 cbr 1000 ------- 1 15.0 52.0 2 22
+ 0.320088 0 2 cbr 1000 ------- 1 15.0 52.0 2 22
- 0.320088 0 2 cbr 1000 ------- 1 15.0 52.0 2 22
r 0.320088 4 0 cbr 1000 ------- 1 14.0 73.0 2 24
+ 0.320088 0 3 cbr 1000 ------- 1 14.0 73.0 2 24
r 0.320088 7 0 cbr 1000 ------- 1 47.0 73.0 2 36
+ 0.320088 0 3 cbr 1000 ------- 1 47.0 73.0 2 36
r 0.320096 9 0 cbr 1000 ------- 1 79.0 52.0 2 30
+ 0.320096 0 2 cbr 1000 ------- 1 79.0 52.0 2 30
r 0.320096 5 0 cbr 1000 ------- 1 55.0 52.0 2 38
+ 0.320096 0 2 cbr 1000 ------- 1 55.0 52.0 2 38
r 0.320096 4 0 cbr 1000 ------- 1 64.0 52.0 2 34
+ 0.320096 0 2 cbr 1000 ------- 1 64.0 52.0 2 34
- 0.320096 0 3 cbr 1000 ------- 1 14.0 73.0 2 24
- 0.320096 0 2 cbr 1000 ------- 1 79.0 52.0 2 30
r 0.320104 9 0 cbr 1000 ------- 1 49.0 73.0 2 32
+ 0.320104 0 3 cbr 1000 ------- 1 49.0 73.0 2 32
- 0.320104 0 3 cbr 1000 ------- 1 47.0 73.0 2 36
- 0.320104 0 2 cbr 1000 ------- 1 55.0 52.0 2 38
- 0.320112 0 3 cbr 1000 ------- 1 49.0 73.0 2 32
- 0.320112 0 2 cbr 1000 ------- 1 64.0 52.0 2 34
r 0.320126 9 0 cbr 518 ------- 1 39.0 73.0 3 21
+ 0.320126 0 3 cbr 518 ------- 1 39.0 73.0 3 21
- 0.320126 0 3 cbr 518 ------- 1 39.0 73.0 3 21
r 0.320126 5 0 cbr 518 ------- 1 15.0 52.0 3 23
+ 0.320126 0 2 cbr 518 ------- 1 15.0 52.0 3 23
- 0.320126 0 2 cbr 518 ------- 1 15.0 52.0 3 23
r 0.320126 4 0 cbr 518 ------- 1 14.0 73.0 3 25
+ 0.320126 0 3 cbr 518 ------- 1 14.0 73.0 3 25
r 0.320126 7 0 cbr 518 ------- 1 47.0 73.0 3 37
+ 0.320126 0 3 cbr 518 ------- 1 47.0 73.0 3 37
r 0.32013 9 0 cbr 518 ------- 1 79.0 52.0 3 31
+ 0.32013 0 2 cbr 518 ------- 1 79.0 52.0 3 31
r 0.32013 5 0 cbr 518 ------- 1 55.0 52.0 3 39
+ 0.32013 0 2 cbr 518 ------- 1 55.0 52.0 3 39
r 0.32013 4 0 cbr 518 ------- 1 64.0 52.0 3 35
+ 0.32013 0 2 cbr 518 ------- 1 64.0 52.0 3 35
- 0.32013 0 3 cbr 518 ------- 1 14.0 73.0 3 25
- 0.32013 0 2 cbr 518 ------- 1 79.0 52.0 3 31
r 0.320134 9 0 cbr 518 ------- 1 49.0 73.0 3 33
+ 0.320134 0 3 cbr 518 ------- 1 49.0 73.0 3 33
- 0.320134 0 3 cbr 518 ------- 1 47.0 73.0 3 37
- 0.320134 0 2 cbr 518 ------- 1 55.0 52.0 3 39
- 0.320138 0 3 cbr 518 ------- 1 49.0 73.0 3 33
- 0.320138 0 2 cbr 518 ------- 1 64.0 52.0 3 35
r 0.32016 2 52 cbr 1000 ------- 1 62.0 52.0 2 26
r 0.320201 2 52 cbr 518 ------- 1 62.0 52.0 3 27
r 0.320209 9 0 cbr 1000 ------- 1 39.1 73.0 2 28
+ 0.320209 0 3 cbr 1000 ------- 1 39.1 73.0 2 28
- 0.320209 0 3 cbr 1000 ------- 1 39.1 73.0 2 28
r 0.320247 9 0 cbr 518 ------- 1 39.1 73.0 3 29
+ 0.320247 0 3 cbr 518 ------- 1 39.1 73.0 3 29
- 0.320247 0 3 cbr 518 ------- 1 39.1 73.0 3 29
r 0.330096 0 3 cbr 1000 ------- 1 39.0 73.0 2 20
+ 0.330096 3 73 cbr 1000 ------- 1 39.0 73.0 2 20
- 0.330096 3 73 cbr 1000 ------- 1 39.0 73.0 2 20
r 0.330096 0 2 cbr 1000 ------- 1 15.0 52.0 2 22
+ 0.330096 2 52 cbr 1000 ------- 1 15.0 52.0 2 22
- 0.330096 2 52 cbr 1000 ------- 1 15.0 52.0 2 22
r 0.330104 0 3 cbr 1000 ------- 1 14.0 73.0 2 24
+ 0.330104 3 73 cbr 1000 ------- 1 14.0 73.0 2 24
r 0.330104 0 2 cbr 1000 ------- 1 79.0 52.0 2 30
+ 0.330104 2 52 cbr 1000 ------- 1 79.0 52.0 2 30
r 0.330112 0 3 cbr 1000 ------- 1 47.0 73.0 2 36
+ 0.330112 3 73 cbr 1000 ------- 1 47.0 73.0 2 36
r 0.330112 0 2 cbr 1000 ------- 1 55.0 52.0 2 38
+ 0.330112 2 52 cbr 1000 ------- 1 55.0 52.0 2 38
r 0.33012 0 3 cbr 1000 ------- 1 49.0 73.0 2 32
+ 0.33012 3 73 cbr 1000 ------- 1 49.0 73.0 2 32
r 0.33012 0 2 cbr 1000 ------- 1 64.0 52.0 2 34
+ 0.33012 2 52 cbr 1000 ------- 1 64.0 52.0 2 34
r 0.33013 0 3 cbr 518 ------- 1 39.0 73.0 3 21
+ 0.33013 3 73 cbr 518 ------- 1 39.0 73.0 3 21
r 0.33013 0 2 cbr 518 ------- 1 15.0 52.0 3 23
+ 0.33013 2 52 cbr 518 ------- 1 15.0 52.0 3 23
r 0.330134 0 3 cbr 518 ------- 1 14.0 73.0 3 25
+ 0.330134 3 73 cbr 518 ------- 1 14.0 73.0 3 25
r 0.330134 0 2 cbr 518 ------- 1 79.0 52.0 3 31
+ 0.330134 2 52 cbr 518 ------- 1 79.0 52.0 3 31
r 0.330138 0 3 cbr 518 ------- 1 47.0 73.0 3 37
+ 0.330138 3 73 cbr 518 ------- 1 47.0 73.0 3 37
r 0.330138 0 2 cbr 518 ------- 1 55.0 52.0 3 39
+ 0.330138 2 52 cbr 518 ------- 1 55.0 52.0 3 39
r 0.330142 0 3 cbr 518 ------- 1 49.0 73.0 3 33
+ 0.330142 3 73 cbr 518 ------- 1 49.0 73.0 3 33
r 0.330142 0 2 cbr 518 ------- 1 64.0 52.0 3 35
+ 0.330142 2 52 cbr 518 ------- 1 64.0 52.0 3 35
- 0.330176 3 73 cbr 1000 ------- 1 14.0 73.0 2 24
- 0.330176 2 52 cbr 1000 ------- 1 79.0 52.0 2 30
r 0.330217 0 3 cbr 1000 ------- 1 39.1 73.0 2 28
+ 0.330217 3 73 cbr 1000 ------- 1 39.1 73.0 2 28
r 0.330251 0 3 cbr 518 ------- 1 39.1 73.0 3 29
+ 0.330251 3 73 cbr 518 ------- 1 39.1 73.0 3 29
- 0.330256 3 73 cbr 1000 ------- 1 47.0 73.0 2 36
- 0.330256 2 52 cbr 1000 ------- 1 55.0 52.0 2 38
- 0.330336 3 73 cbr 1000 ------- 1 49.0 73.0 2 32
- 0.330336 2 52 cbr 1000 ------- 1 64.0 52.0 2 34
- 0.330416 3 73 cbr 518 ------- 1 39.0 73.0 3 21
- 0.330416 2 52 cbr 518 ------- 1 15.0 52.0 3 23
- 0.330457 3 73 cbr 518 ------- 1 14.0 73.0 3 25
- 0.330457 2 52 cbr 518 ------- 1 79.0 52.0 3 31
- 0.330499 3 73 cbr 518 ------- 1 47.0 73.0 3 37
- 0.330499 2 52 cbr 518 ------- 1 55.0 52.0 3 39
- 0.33054 3 73 cbr 518 ------- 1 49.0 73.0 3 33
- 0.33054 2 52 cbr 518 ------- 1 64.0 52.0 3 35
- 0.330582 3 73 cbr 1000 ------- 1 39.1 73.0 2 28
- 0.330662 3 73 cbr 518 ------- 1 39.1 73.0 3 29
r 0.340176 3 73 cbr 1000 ------- 1 39.0 73.0 2 20
r 0.340176 2 52 cbr 1000 ------- 1 15.0 52.0 2 22
r 0.340256 3 73 cbr 1000 ------- 1 14.0 73.0 2 24
r 0.340256 2 52 cbr 1000 ------- 1 79.0 52.0 2 30
r 0.340336 3 73 cbr 1000 ------- 1 47.0 73.0 2 36
r 0.340336 2 52 cbr 1000 ------- 1 55.0 52.0 2 38
r 0.340416 3 73 cbr 1000 ------- 1 49.0 73.0 2 32
r 0.340416 2 52 cbr 1000 ------- 1 64.0 52.0 2 34
r 0.340457 3 73 cbr 518 ------- 1 39.0 73.0 3 21
r 0.340457 2 52 cbr 518 ------- 1 15.0 52.0 3 23
r 0.340499 3 73 cbr 518 ------- 1 14.0 73.0 3 25
r 0.340499 2 52 cbr 518 ------- 1 79.0 52.0 3 31
r 0.34054 3 73 cbr 518 ------- 1 47.0 73.0 3 37
r 0.34054 2 52 cbr 518 ------- 1 55.0 52.0 3 39
r 0.340582 3 73 cbr 518 ------- 1 49.0 73.0 3 33
r 0.340582 2 52 cbr 518 ------- 1 64.0 52.0 3 35
r 0.340662 3 73 cbr 1000 ------- 1 39.1 73.0 2 28
r 0.340703 3 73 cbr 518 ------- 1 39.1 73.0 3 29
+ 0.4 39 9 cbr 1000 ------- 1 39.0 73.0 4 40
- 0.4 39 9 cbr 1000 ------- 1 39.0 73.0 4 40
+ 0.4 39 9 cbr 518 ------- 1 39.0 73.0 5 41
+ 0.4 15 5 cbr 1000 ------- 1 15.0 52.0 4 42
- 0.4 15 5 cbr 1000 ------- 1 15.0 52.0 4 42
+ 0.4 15 5 cbr 518 ------- 1 15.0 52.0 5 43
+ 0.4 14 4 cbr 1000 ------- 1 14.0 73.0 4 44
- 0.4 14 4 cbr 1000 ------- 1 14.0 73.0 4 44
+ 0.4 14 4 cbr 518 ------- 1 14.0 73.0 5 45
+ 0.4 62 2 cbr 1000 ------- 1 62.0 52.0 4 46
- 0.4 62 2 cbr 1000 ------- 1 62.0 52.0 4 46
+ 0.4 62 2 cbr 518 ------- 1 62.0 52.0 5 47
+ 0.4 39 9 cbr 1000 ------- 1 39.1 73.0 4 48
+ 0.4 39 9 cbr 518 ------- 1 39.1 73.0 5 49
+ 0.4 79 9 cbr 1000 ------- 1 79.0 52.0 4 50
- 0.4 79 9 cbr 1000 ------- 1 79.0 52.0 4 50
+ 0.4 79 9 cbr 518 ------- 1 79.0 52.0 5 51
+ 0.4 49 9 cbr 1000 ------- 1 49.0 73.0 4 52
- 0.4 49 9 cbr 1000 ------- 1 49.0 73.0 4 52
+ 0.4 49 9 cbr 518 ------- 1 49.0 73.0 5 53
+ 0.4 64 4 cbr 1000 ------- 1 64.0 52.0 4 54
- 0.4 64 4 cbr 1000 ------- 1 64.0 52.0 4 54
+ 0.4 64 4 cbr 518 ------- 1 64.0 52.0 5 55
+ 0.4 47 7 cbr 1000 ------- 1 47.0 73.0 4 56
- 0.4 47 7 cbr 1000 ------- 1 47.0 73.0 4 56
+ 0.4 47 7 cbr 518 ------- 1 47.0 73.0 5 57
+ 0.4 55 5 cbr 1000 ------- 1 55.0 52.0 4 58
- 0.4 55 5 cbr 1000 ------- 1 55.0 52.0 4 58
+ 0.4 55 5 cbr 518 ------- 1 55.0 52.0 5 59
- 0.40008 39 9 cbr 518 ------- 1 39.0 73.0 5 41
- 0.40008 15 5 cbr 518 ------- 1 15.0 52.0 5 43
- 0.40008 14 4 cbr 518 ------- 1 14.0 73.0 5 45
- 0.40008 62 2 cbr 518 ------- 1 62.0 52.0 5 47
- 0.40008 79 9 cbr 518 ------- 1 79.0 52.0 5 51
- 0.40008 49 9 cbr 518 ------- 1 49.0 73.0 5 53
- 0.40008 64 4 cbr 518 ------- 1 64.0 52.0 5 55
- 0.40008 47 7 cbr 518 ------- 1 47.0 73.0 5 57
- 0.40008 55 5 cbr 518 ------- 1 55.0 52.0 5 59
- 0.400121 39 9 cbr 1000 ------- 1 39.1 73.0 4 48
- 0.400201 39 9 cbr 518 ------- 1 39.1 73.0 5 49
r 0.41008 39 9 cbr 1000 ------- 1 39.0 73.0 4 40
+ 0.41008 9 0 cbr 1000 ------- 1 39.0 73.0 4 40
- 0.41008 9 0 cbr 1000 ------- 1 39.0 73.0 4 40
r 0.41008 15 5 cbr 1000 ------- 1 15.0 52.0 4 42
+ 0.41008 5 0 cbr 1000 ------- 1 15.0 52.0 4 42
- 0.41008 5 0 cbr 1000 ------- 1 15.0 52.0 4 42
r 0.41008 14 4 cbr 1000 ------- 1 14.0 73.0 4 44
+ 0.41008 4 0 cbr 1000 ------- 1 14.0 73.0 4 44
- 0.41008 4 0 cbr 1000 ------- 1 14.0 73.0 4 44
r 0.41008 62 2 cbr 1000 ------- 1 62.0 52.0 4 46
+ 0.41008 2 52 cbr 1000 ------- 1 62.0 52.0 4 46
- 0.41008 2 52 cbr 1000 ------- 1 62.0 52.0 4 46
r 0.41008 79 9 cbr 1000 ------- 1 79.0 52.0 4 50
+ 0.41008 9 0 cbr 1000 ------- 1 79.0 52.0 4 50
r 0.41008 49 9 cbr 1000 ------- 1 49.0 73.0 4 52
+ 0.41008 9 0 cbr 1000 ------- 1 49.0 73.0 4 52
r 0.41008 64 4 cbr 1000 ------- 1 64.0 52.0 4 54
+ 0.41008 4 0 cbr 1000 ------- 1 64.0 52.0 4 54
r 0.41008 47 7 cbr 1000 ------- 1 47.0 73.0 4 56
+ 0.41008 7 0 cbr 1000 ------- 1 47.0 73.0 4 56
- 0.41008 7 0 cbr 1000 ------- 1 47.0 73.0 4 56
r 0.41008 55 5 cbr 1000 ------- 1 55.0 52.0 4 58
+ 0.41008 5 0 cbr 1000 ------- 1 55.0 52.0 4 58
- 0.410088 9 0 cbr 1000 ------- 1 79.0 52.0 4 50
- 0.410088 5 0 cbr 1000 ------- 1 55.0 52.0 4 58
- 0.410088 4 0 cbr 1000 ------- 1 64.0 52.0 4 54
- 0.410096 9 0 cbr 1000 ------- 1 49.0 73.0 4 52
r 0.410121 39 9 cbr 518 ------- 1 39.0 73.0 5 41
+ 0.410121 9 0 cbr 518 ------- 1 39.0 73.0 5 41
- 0.410121 9 0 cbr 518 ------- 1 39.0 73.0 5 41
r 0.410121 15 5 cbr 518 ------- 1 15.0 52.0 5 43
+ 0.410121 5 0 cbr 518 ------- 1 15.0 52.0 5 43
- 0.410121 5 0 cbr 518 ------- 1 15.0 52.0 5 43
r 0.410121 14 4 cbr 518 ------- 1 14.0 73.0 5 45
+ 0.410121 4 0 cbr 518 ------- 1 14.0 73.0 5 45
- 0.410121 4 0 cbr 518 ------- 1 14.0 73.0 5 45
r 0.410121 62 2 cbr 518 ------- 1 62.0 52.0 5 47
+ 0.410121 2 52 cbr 518 ------- 1 62.0 52.0 5 47
r 0.410121 79 9 cbr 518 ------- 1 79.0 52.0 5 51
+ 0.410121 9 0 cbr 518 ------- 1 79.0 52.0 5 51
r 0.410121 49 9 cbr 518 ------- 1 49.0 73.0 5 53
+ 0.410121 9 0 cbr 518 ------- 1 49.0 73.0 5 53
r 0.410121 64 4 cbr 518 ------- 1 64.0 52.0 5 55
+ 0.410121 4 0 cbr 518 ------- 1 64.0 52.0 5 55
r 0.410121 47 7 cbr 518 ------- 1 47.0 73.0 5 57
+ 0.410121 7 0 cbr 518 ------- 1 47.0 73.0 5 57
- 0.410121 7 0 cbr 518 ------- 1 47.0 73.0 5 57
r 0.410121 55 5 cbr 518 ------- 1 55.0 52.0 5 59
+ 0.410121 5 0 cbr 518 ------- 1 55.0 52.0 5 59
- 0.410126 9 0 cbr 518 ------- 1 79.0 52.0 5 51
- 0.410126 5 0 cbr 518 ------- 1 55.0 52.0 5 59
- 0.410126 4 0 cbr 518 ------- 1 64.0 52.0 5 55
- 0.41013 9 0 cbr 518 ------- 1 49.0 73.0 5 53
- 0.41016 2 52 cbr 518 ------- 1 62.0 52.0 5 47
r 0.410201 39 9 cbr 1000 ------- 1 39.1 73.0 4 48
+ 0.410201 9 0 cbr 1000 ------- 1 39.1 73.0 4 48
- 0.410201 9 0 cbr 1000 ------- 1 39.1 73.0 4 48
r 0.410243 39 9 cbr 518 ------- 1 39.1 73.0 5 49
+ 0.410243 9 0 cbr 518 ------- 1 39.1 73.0 5 49
- 0.410243 9 0 cbr 518 ------- 1 39.1 73.0 5 49
r 0.420088 9 0 cbr 1000 ------- 1 39.0 73.0 4 40
+ 0.420088 0 3 cbr 1000 ------- 1 39.0 73.0 4 40
- 0.420088 0 3 cbr 1000 ------- 1 39.0 73.0 4 40
r 0.420088 5 0 cbr 1000 ------- 1 15.0 52.0 4 42
+ 0.420088 0 2 cbr 1000 ------- 1 15.0 52.0 4 42
- 0.420088 0 2 cbr 1000 ------- 1 15.0 52.0 4 42
r 0.420088 4 0 cbr 1000 ------- 1 14.0 73.0 4 44
+ 0.420088 0 3 cbr 1000 ------- 1 14.0 73.0 4 44
r 0.420088 7 0 cbr 1000 ------- 1 47.0 73.0 4 56
+ 0.420088 0 3 cbr 1000 ------- 1 47.0 73.0 4 56
r 0.420096 9 0 cbr 1000 ------- 1 79.0 52.0 4 50
+ 0.420096 0 2 cbr 1000 ------- 1 79.0 52.0 4 50
r 0.420096 5 0 cbr 1000 ------- 1 55.0 52.0 4 58
+ 0.420096 0 2 cbr 1000 ------- 1 55.0 52.0 4 58
r 0.420096 4 0 cbr 1000 ------- 1 64.0 52.0 4 54
+ 0.420096 0 2 cbr 1000 ------- 1 64.0 52.0 4 54
- 0.420096 0 3 cbr 1000 ------- 1 14.0 73.0 4 44
- 0.420096 0 2 cbr 1000 ------- 1 79.0 52.0 4 50
r 0.420104 9 0 cbr 1000 ------- 1 49.0 73.0 4 52
+ 0.420104 0 3 cbr 1000 ------- 1 49.0 73.0 4 52
- 0.420104 0 3 cbr 1000 ------- 1 47.0 73.0 4 56
- 0.420104 0 2 cbr 1000 ------- 1 55.0 52.0 4 58
- 0.420112 0 3 cbr 1000 ------- 1 49.0 73.0 4 52
- 0.420112 0 2 cbr 1000 ------- 1 64.0 52.0 4 54
r 0.420126 9 0 cbr 518 ------- 1 39.0 73.0 5 41
+ 0.420126 0 3 cbr 518 ------- 1 39.0 73.0 5 41
- 0.420126 0 3 cbr 518 ------- 1 39.0 73.0 5 41
r 0.420126 5 0 cbr 518 ------- 1 15.0 52.0 5 43
+ 0.420126 0 2 cbr 518 ------- 1 15.0 52.0 5 43
- 0.420126 0 2 cbr 518 ------- 1 15.0 52.0 5 43
r 0.420126 4 0 cbr 518 ------- 1 14.0 73.0 5 45
+ 0.420126 0 3 cbr 518 ------- 1 14.0 73.0 5 45
r 0.420126 7 0 cbr 518 ------- 1 47.0 73.0 5 57
+ 0.420126 0 3 cbr 518 ------- 1 47.0 73.0 5 57
r 0.42013 9 0 cbr 518 ------- 1 79.0 52.0 5 51
+ 0.42013 0 2 cbr 518 ------- 1 79.0 52.0 5 51
r 0.42013 5 0 cbr 518 ------- 1 55.0 52.0 5 59
+ 0.42013 0 2 cbr 518 ------- 1 55.0 52.0 5 59
r 0.42013 4 0 cbr 518 ------- 1 64.0 52.0 5 55
+ 0.42013 0 2 cbr 518 ------- 1 64.0 52.0 5 55
- 0.42013 0 3 cbr 518 ------- 1 14.0 73.0 5 45
- 0.42013 0 2 cbr 518 ------- 1 79.0 52.0 5 51
r 0.420134 9 0 cbr 518 ------- 1 49.0 73.0 5 53
+ 0.420134 0 3 cbr 518 ------- 1 49.0 73.0 5 53
- 0.420134 0 3 cbr 518 ------- 1 47.0 73.0 5 57
- 0.420134 0 2 cbr 518 ------- 1 55.0 52.0 5 59
- 0.420138 0 3 cbr 518 ------- 1 49.0 73.0 5 53
- 0.420138 0 2 cbr 518 ------- 1 64.0 52.0 5 55
r 0.42016 2 52 cbr 1000 ------- 1 62.0 52.0 4 46
r 0.420201 2 52 cbr 518 ------- 1 62.0 52.0 5 47
r 0.420209 9 0 cbr 1000 ------- 1 39.1 73.0 4 48
+ 0.420209 0 3 cbr 1000 ------- 1 39.1 73.0 4 48
- 0.420209 0 3 cbr 1000 ------- 1 39.1 73.0 4 48
r 0.420247 9 0 cbr 518 ------- 1 39.1 73.0 5 49
+ 0.420247 0 3 cbr 518 ------- 1 39.1 73.0 5 49
- 0.420247 0 3 cbr 518 ------- 1 39.1 73.0 5 49
r 0.430096 0 3 cbr 1000 ------- 1 39.0 73.0 4 40
+ 0.430096 3 73 cbr 1000 ------- 1 39.0 73.0 4 40
- 0.430096 3 73 cbr 1000 ------- 1 39.0 73.0 4 40
r 0.430096 0 2 cbr 1000 ------- 1 15.0 52.0 4 42
+ 0.430096 2 52 cbr 1000 ------- 1 15.0 52.0 4 42
- 0.430096 2 52 cbr 1000 ------- 1 15.0 52.0 4 42
r 0.430104 0 3 cbr 1000 ------- 1 14.0 73.0 4 44
+ 0.430104 3 73 cbr 1000 ------- 1 14.0 73.0 4 44
r 0.430104 0 2 cbr 1000 ------- 1 79.0 52.0 4 50
+ 0.430104 2 52 cbr 1000 ------- 1 79.0 52.0 4 50
r 0.430112 0 3 cbr 1000 ------- 1 47.0 73.0 4 56
+ 0.430112 3 73 cbr 1000 ------- 1 47.0 73.0 4 56
r 0.430112 0 2 cbr 1000 ------- 1 55.0 52.0 4 58
+ 0.430112 2 52 cbr 1000 ------- 1 55.0 52.0 4 58