+ 1.5 62 2 cbr 1000 ------- 1 62.0 23.1 0 0
- 1.5 62 2 cbr 1000 ------- 1 62.0 23.1 0 0
+ 1.5 23 3 cbr 1000 ------- 1 23.0 29.0 0 1
- 1.5 23 3 cbr 1000 ------- 1 23.0 29.0 0 1
+ 1.5 25 5 cbr 1000 ------- 1 25.0 23.1 0 2
- 1.5 25 5 cbr 1000 ------- 1 25.0 23.1 0 2
+ 1.5 76 6 cbr 1000 ------- 1 76.0 29.0 0 3
- 1.5 76 6 cbr 1000 ------- 1 76.0 29.0 0 3
+ 1.5 32 2 cbr 1000 ------- 1 32.0 23.1 0 4
- 1.5 32 2 cbr 1000 ------- 1 32.0 23.1 0 4
+ 1.5 19 9 cbr 1000 ------- 1 19.0 29.0 0 5
- 1.5 19 9 cbr 1000 ------- 1 19.0 29.0 0 5
+ 1.5 37 7 cbr 1000 ------- 1 37.0 23.1 0 6
- 1.5 37 7 cbr 1000 ------- 1 37.0 23.1 0 6
+ 1.5 24 4 cbr 1000 ------- 1 24.0 29.0 0 7
- 1.5 24 4 cbr 1000 ------- 1 24.0 29.0 0 7
+ 1.5 20 10 cbr 1000 ------- 1 20.0 23.1 0 8
- 1.5 20 10 cbr 1000 ------- 1 20.0 23.1 0 8
+ 1.5 55 5 cbr 1000 ------- 1 55.0 29.0 0 9
- 1.5 55 5 cbr 1000 ------- 1 55.0 29.0 0 9
r 1.51008 62 2 cbr 1000 ------- 1 62.0 23.1 0 0
+ 1.51008 2 0 cbr 1000 ------- 1 62.0 23.1 0 0
- 1.51008 2 0 cbr 1000 ------- 1 62.0 23.1 0 0
r 1.51008 23 3 cbr 1000 ------- 1 23.0 29.0 0 1
+ 1.51008 3 0 cbr 1000 ------- 1 23.0 29.0 0 1
- 1.51008 3 0 cbr 1000 ------- 1 23.0 29.0 0 1
r 1.51008 25 5 cbr 1000 ------- 1 25.0 23.1 0 2
+ 1.51008 5 0 cbr 1000 ------- 1 25.0 23.1 0 2
- 1.51008 5 0 cbr 1000 ------- 1 25.0 23.1 0 2
r 1.51008 76 6 cbr 1000 ------- 1 76.0 29.0 0 3
+ 1.51008 6 0 cbr 1000 ------- 1 76.0 29.0 0 3
- 1.51008 6 0 cbr 1000 ------- 1 76.0 29.0 0 3
r 1.51008 32 2 cbr 1000 ------- 1 32.0 23.1 0 4
+ 1.51008 2 0 cbr 1000 ------- 1 32.0 23.1 0 4
r 1.51008 19 9 cbr 1000 ------- 1 19.0 29.0 0 5
+ 1.51008 9 29 cbr 1000 ------- 1 19.0 29.0 0 5
- 1.51008 9 29 cbr 1000 ------- 1 19.0 29.0 0 5
r 1.51008 37 7 cbr 1000 ------- 1 37.0 23.1 0 6
+ 1.51008 7 0 cbr 1000 ------- 1 37.0 23.1 0 6
- 1.51008 7 0 cbr 1000 ------- 1 37.0 23.1 0 6
r 1.51008 24 4 cbr 1000 ------- 1 24.0 29.0 0 7
+ 1.51008 4 0 cbr 1000 ------- 1 24.0 29.0 0 7
- 1.51008 4 0 cbr 1000 ------- 1 24.0 29.0 0 7
r 1.51008 20 10 cbr 1000 ------- 1 20.0 23.1 0 8
+ 1.51008 10 0 cbr 1000 ------- 1 20.0 23.1 0 8
- 1.51008 10 0 cbr 1000 ------- 1 20.0 23.1 0 8
r 1.51008 55 5 cbr 1000 ------- 1 55.0 29.0 0 9
+ 1.51008 5 0 cbr 1000 ------- 1 55.0 29.0 0 9
- 1.510088 2 0 cbr 1000 ------- 1 32.0 23.1 0 4
- 1.510088 5 0 cbr 1000 ------- 1 55.0 29.0 0 9
r 1.520088 2 0 cbr 1000 ------- 1 62.0 23.1 0 0
+ 1.520088 0 3 cbr 1000 ------- 1 62.0 23.1 0 0
- 1.520088 0 3 cbr 1000 ------- 1 62.0 23.1 0 0
r 1.520088 3 0 cbr 1000 ------- 1 23.0 29.0 0 1
+ 1.520088 0 9 cbr 1000 ------- 1 23.0 29.0 0 1
- 1.520088 0 9 cbr 1000 ------- 1 23.0 29.0 0 1
r 1.520088 5 0 cbr 1000 ------- 1 25.0 23.1 0 2
+ 1.520088 0 3 cbr 1000 ------- 1 25.0 23.1 0 2
r 1.520088 6 0 cbr 1000 ------- 1 76.0 29.0 0 3
+ 1.520088 0 9 cbr 1000 ------- 1 76.0 29.0 0 3
r 1.520088 7 0 cbr 1000 ------- 1 37.0 23.1 0 6
+ 1.520088 0 3 cbr 1000 ------- 1 37.0 23.1 0 6
r 1.520088 4 0 cbr 1000 ------- 1 24.0 29.0 0 7
+ 1.520088 0 9 cbr 1000 ------- 1 24.0 29.0 0 7
r 1.520088 10 0 cbr 1000 ------- 1 20.0 23.1 0 8
+ 1.520088 0 3 cbr 1000 ------- 1 20.0 23.1 0 8
r 1.520096 2 0 cbr 1000 ------- 1 32.0 23.1 0 4
+ 1.520096 0 3 cbr 1000 ------- 1 32.0 23.1 0 4
r 1.520096 5 0 cbr 1000 ------- 1 55.0 29.0 0 9
+ 1.520096 0 9 cbr 1000 ------- 1 55.0 29.0 0 9
- 1.520096 0 3 cbr 1000 ------- 1 25.0 23.1 0 2
- 1.520096 0 9 cbr 1000 ------- 1 76.0 29.0 0 3
- 1.520104 0 3 cbr 1000 ------- 1 37.0 23.1 0 6
- 1.520104 0 9 cbr 1000 ------- 1 24.0 29.0 0 7
- 1.520112 0 3 cbr 1000 ------- 1 20.0 23.1 0 8
- 1.520112 0 9 cbr 1000 ------- 1 55.0 29.0 0 9
- 1.52012 0 3 cbr 1000 ------- 1 32.0 23.1 0 4
r 1.52016 9 29 cbr 1000 ------- 1 19.0 29.0 0 5
r 1.530096 0 3 cbr 1000 ------- 1 62.0 23.1 0 0
+ 1.530096 3 23 cbr 1000 ------- 1 62.0 23.1 0 0
- 1.530096 3 23 cbr 1000 ------- 1 62.0 23.1 0 0
r 1.530096 0 9 cbr 1000 ------- 1 23.0 29.0 0 1
+ 1.530096 9 29 cbr 1000 ------- 1 23.0 29.0 0 1
- 1.530096 9 29 cbr 1000 ------- 1 23.0 29.0 0 1
r 1.530104 0 3 cbr 1000 ------- 1 25.0 23.1 0 2
+ 1.530104 3 23 cbr 1000 ------- 1 25.0 23.1 0 2
r 1.530104 0 9 cbr 1000 ------- 1 76.0 29.0 0 3
+ 1.530104 9 29 cbr 1000 ------- 1 76.0 29.0 0 3
r 1.530112 0 3 cbr 1000 ------- 1 37.0 23.1 0 6
+ 1.530112 3 23 cbr 1000 ------- 1 37.0 23.1 0 6
r 1.530112 0 9 cbr 1000 ------- 1 24.0 29.0 0 7
+ 1.530112 9 29 cbr 1000 ------- 1 24.0 29.0 0 7
r 1.53012 0 3 cbr 1000 ------- 1 20.0 23.1 0 8
+ 1.53012 3 23 cbr 1000 ------- 1 20.0 23.1 0 8
r 1.53012 0 9 cbr 1000 ------- 1 55.0 29.0 0 9
+ 1.53012 9 29 cbr 1000 ------- 1 55.0 29.0 0 9
r 1.530128 0 3 cbr 1000 ------- 1 32.0 23.1 0 4
+ 1.530128 3 23 cbr 1000 ------- 1 32.0 23.1 0 4
- 1.530176 3 23 cbr 1000 ------- 1 25.0 23.1 0 2
- 1.530176 9 29 cbr 1000 ------- 1 76.0 29.0 0 3
- 1.530256 3 23 cbr 1000 ------- 1 37.0 23.1 0 6
- 1.530256 9 29 cbr 1000 ------- 1 24.0 29.0 0 7
- 1.530336 3 23 cbr 1000 ------- 1 20.0 23.1 0 8
- 1.530336 9 29 cbr 1000 ------- 1 55.0 29.0 0 9
- 1.530416 3 23 cbr 1000 ------- 1 32.0 23.1 0 4
r 1.540176 3 23 cbr 1000 ------- 1 62.0 23.1 0 0
r 1.540176 9 29 cbr 1000 ------- 1 23.0 29.0 0 1
r 1.540256 3 23 cbr 1000 ------- 1 25.0 23.1 0 2
r 1.540256 9 29 cbr 1000 ------- 1 76.0 29.0 0 3
r 1.540336 3 23 cbr 1000 ------- 1 37.0 23.1 0 6
r 1.540336 9 29 cbr 1000 ------- 1 24.0 29.0 0 7
r 1.540416 3 23 cbr 1000 ------- 1 20.0 23.1 0 8
r 1.540416 9 29 cbr 1000 ------- 1 55.0 29.0 0 9
r 1.540496 3 23 cbr 1000 ------- 1 32.0 23.1 0 4
+ 2.5 62 2 cbr 1000 ------- 1 62.0 23.1 1 10
- 2.5 62 2 cbr 1000 ------- 1 62.0 23.1 1 10
+ 2.5 23 3 cbr 1000 ------- 1 23.0 29.0 1 11
- 2.5 23 3 cbr 1000 ------- 1 23.0 29.0 1 11
+ 2.5 25 5 cbr 1000 ------- 1 25.0 23.1 1 12
- 2.5 25 5 cbr 1000 ------- 1 25.0 23.1 1 12
+ 2.5 76 6 cbr 1000 ------- 1 76.0 29.0 1 13
- 2.5 76 6 cbr 1000 ------- 1 76.0 29.0 1 13
+ 2.5 32 2 cbr 1000 ------- 1 32.0 23.1 1 14
- 2.5 32 2 cbr 1000 ------- 1 32.0 23.1 1 14
+ 2.5 19 9 cbr 1000 ------- 1 19.0 29.0 1 15
- 2.5 19 9 cbr 1000 ------- 1 19.0 29.0 1 15
+ 2.5 37 7 cbr 1000 ------- 1 37.0 23.1 1 16
- 2.5 37 7 cbr 1000 ------- 1 37.0 23.1 1 16
+ 2.5 24 4 cbr 1000 ------- 1 24.0 29.0 1 17
- 2.5 24 4 cbr 1000 ------- 1 24.0 29.0 1 17
+ 2.5 20 10 cbr 1000 ------- 1 20.0 23.1 1 18
- 2.5 20 10 cbr 1000 ------- 1 20.0 23.1 1 18
+ 2.5 55 5 cbr 1000 ------- 1 55.0 29.0 1 19
- 2.5 55 5 cbr 1000 ------- 1 55.0 29.0 1 19
r 2.51008 62 2 cbr 1000 ------- 1 62.0 23.1 1 10
+ 2.51008 2 0 cbr 1000 ------- 1 62.0 23.1 1 10
- 2.51008 2 0 cbr 1000 ------- 1 62.0 23.1 1 10
r 2.51008 23 3 cbr 1000 ------- 1 23.0 29.0 1 11
+ 2.51008 3 0 cbr 1000 ------- 1 23.0 29.0 1 11
- 2.51008 3 0 cbr 1000 ------- 1 23.0 29.0 1 11
r 2.51008 25 5 cbr 1000 ------- 1 25.0 23.1 1 12
+ 2.51008 5 0 cbr 1000 ------- 1 25.0 23.1 1 12
- 2.51008 5 0 cbr 1000 ------- 1 25.0 23.1 1 12
r 2.51008 76 6 cbr 1000 ------- 1 76.0 29.0 1 13
+ 2.51008 6 0 cbr 1000 ------- 1 76.0 29.0 1 13
- 2.51008 6 0 cbr 1000 ------- 1 76.0 29.0 1 13
r 2.51008 32 2 cbr 1000 ------- 1 32.0 23.1 1 14
+ 2.51008 2 0 cbr 1000 ------- 1 32.0 23.1 1 14
r 2.51008 19 9 cbr 1000 ------- 1 19.0 29.0 1 15
+ 2.51008 9 29 cbr 1000 ------- 1 19.0 29.0 1 15
- 2.51008 9 29 cbr 1000 ------- 1 19.0 29.0 1 15
r 2.51008 37 7 cbr 1000 ------- 1 37.0 23.1 1 16
+ 2.51008 7 0 cbr 1000 ------- 1 37.0 23.1 1 16
- 2.51008 7 0 cbr 1000 ------- 1 37.0 23.1 1 16
r 2.51008 24 4 cbr 1000 ------- 1 24.0 29.0 1 17
+ 2.51008 4 0 cbr 1000 ------- 1 24.0 29.0 1 17
- 2.51008 4 0 cbr 1000 ------- 1 24.0 29.0 1 17
r 2.51008 20 10 cbr 1000 ------- 1 20.0 23.1 1 18
+ 2.51008 10 0 cbr 1000 ------- 1 20.0 23.1 1 18
- 2.51008 10 0 cbr 1000 ------- 1 20.0 23.1 1 18
r 2.51008 55 5 cbr 1000 ------- 1 55.0 29.0 1 19
+ 2.51008 5 0 cbr 1000 ------- 1 55.0 29.0 1 19
- 2.510088 2 0 cbr 1000 ------- 1 32.0 23.1 1 14
- 2.510088 5 0 cbr 1000 ------- 1 55.0 29.0 1 19
r 2.520088 2 0 cbr 1000 ------- 1 62.0 23.1 1 10
+ 2.520088 0 3 cbr 1000 ------- 1 62.0 23.1 1 10
- 2.520088 0 3 cbr 1000 ------- 1 62.0 23.1 1 10
r 2.520088 3 0 cbr 1000 ------- 1 23.0 29.0 1 11
+ 2.520088 0 9 cbr 1000 ------- 1 23.0 29.0 1 11
- 2.520088 0 9 cbr 1000 ------- 1 23.0 29.0 1 11
r 2.520088 5 0 cbr 1000 ------- 1 25.0 23.1 1 12
+ 2.520088 0 3 cbr 1000 ------- 1 25.0 23.1 1 12
r 2.520088 6 0 cbr 1000 ------- 1 76.0 29.0 1 13
+ 2.520088 0 9 cbr 1000 ------- 1 76.0 29.0 1 13
r 2.520088 7 0 cbr 1000 ------- 1 37.0 23.1 1 16
+ 2.520088 0 3 cbr 1000 ------- 1 37.0 23.1 1 16
r 2.520088 4 0 cbr 1000 ------- 1 24.0 29.0 1 17
+ 2.520088 0 9 cbr 1000 ------- 1 24.0 29.0 1 17
r 2.520088 10 0 cbr 1000 ------- 1 20.0 23.1 1 18
+ 2.520088 0 3 cbr 1000 ------- 1 20.0 23.1 1 18
r 2.520096 2 0 cbr 1000 ------- 1 32.0 23.1 1 14
+ 2.520096 0 3 cbr 1000 ------- 1 32.0 23.1 1 14
r 2.520096 5 0 cbr 1000 ------- 1 55.0 29.0 1 19
+ 2.520096 0 9 cbr 1000 ------- 1 55.0 29.0 1 19
- 2.520096 0 3 cbr 1000 ------- 1 25.0 23.1 1 12
- 2.520096 0 9 cbr 1000 ------- 1 76.0 29.0 1 13
- 2.520104 0 3 cbr 1000 ------- 1 37.0 23.1 1 16
- 2.520104 0 9 cbr 1000 ------- 1 24.0 29.0 1 17
- 2.520112 0 3 cbr 1000 ------- 1 20.0 23.1 1 18
- 2.520112 0 9 cbr 1000 ------- 1 55.0 29.0 1 19
- 2.52012 0 3 cbr 1000 ------- 1 32.0 23.1 1 14
r 2.52016 9 29 cbr 1000 ------- 1 19.0 29.0 1 15
r 2.530096 0 3 cbr 1000 ------- 1 62.0 23.1 1 10
+ 2.530096 3 23 cbr 1000 ------- 1 62.0 23.1 1 10
- 2.530096 3 23 cbr 1000 ------- 1 62.0 23.1 1 10
r 2.530096 0 9 cbr 1000 ------- 1 23.0 29.0 1 11
+ 2.530096 9 29 cbr 1000 ------- 1 23.0 29.0 1 11
- 2.530096 9 29 cbr 1000 ------- 1 23.0 29.0 1 11
r 2.530104 0 3 cbr 1000 ------- 1 25.0 23.1 1 12
+ 2.530104 3 23 cbr 1000 ------- 1 25.0 23.1 1 12
r 2.530104 0 9 cbr 1000 ------- 1 76.0 29.0 1 13
+ 2.530104 9 29 cbr 1000 ------- 1 76.0 29.0 1 13
r 2.530112 0 3 cbr 1000 ------- 1 37.0 23.1 1 16
+ 2.530112 3 23 cbr 1000 ------- 1 37.0 23.1 1 16
r 2.530112 0 9 cbr 1000 ------- 1 24.0 29.0 1 17
+ 2.530112 9 29 cbr 1000 ------- 1 24.0 29.0 1 17
r 2.53012 0 3 cbr 1000 ------- 1 20.0 23.1 1 18
+ 2.53012 3 23 cbr 1000 ------- 1 20.0 23.1 1 18
r 2.53012 0 9 cbr 1000 ------- 1 55.0 29.0 1 19
+ 2.53012 9 29 cbr 1000 ------- 1 55.0 29.0 1 19
r 2.530128 0 3 cbr 1000 ------- 1 32.0 23.1 1 14
+ 2.530128 3 23 cbr 1000 ------- 1 32.0 23.1 1 14
- 2.530176 3 23 cbr 1000 ------- 1 25.0 23.1 1 12
- 2.530176 9 29 cbr 1000 ------- 1 76.0 29.0 1 13
- 2.530256 3 23 cbr 1000 ------- 1 37.0 23.1 1 16
- 2.530256 9 29 cbr 1000 ------- 1 24.0 29.0 1 17
- 2.530336 3 23 cbr 1000 ------- 1 20.0 23.1 1 18
- 2.530336 9 29 cbr 1000 ------- 1 55.0 29.0 1 19
- 2.530416 3 23 cbr 1000 ------- 1 32.0 23.1 1 14
r 2.540176 3 23 cbr 1000 ------- 1 62.0 23.1 1 10
r 2.540176 9 29 cbr 1000 ------- 1 23.0 29.0 1 11
r 2.540256 3 23 cbr 1000 ------- 1 25.0 23.1 1 12
r 2.540256 9 29 cbr 1000 ------- 1 76.0 29.0 1 13
r 2.540336 3 23 cbr 1000 ------- 1 37.0 23.1 1 16
r 2.540336 9 29 cbr 1000 ------- 1 24.0 29.0 1 17
r 2.540416 3 23 cbr 1000 ------- 1 20.0 23.1 1 18
r 2.540416 9 29 cbr 1000 ------- 1 55.0 29.0 1 19
r 2.540496 3 23 cbr 1000 ------- 1 32.0 23.1 1 14
+ 3.5 62 2 cbr 1000 ------- 1 62.0 23.1 2 20
- 3.5 62 2 cbr 1000 ------- 1 62.0 23.1 2 20
+ 3.5 23 3 cbr 1000 ------- 1 23.0 29.0 2 21
- 3.5 23 3 cbr 1000 ------- 1 23.0 29.0 2 21
+ 3.5 25 5 cbr 1000 ------- 1 25.0 23.1 2 22
- 3.5 25 5 cbr 1000 ------- 1 25.0 23.1 2 22
+ 3.5 76 6 cbr 1000 ------- 1 76.0 29.0 2 23
- 3.5 76 6 cbr 1000 ------- 1 76.0 29.0 2 23
+ 3.5 32 2 cbr 1000 ------- 1 32.0 23.1 2 24
- 3.5 32 2 cbr 1000 ------- 1 32.0 23.1 2 24
+ 3.5 19 9 cbr 1000 ------- 1 19.0 29.0 2 25
- 3.5 19 9 cbr 1000 ------- 1 19.0 29.0 2 25
+ 3.5 37 7 cbr 1000 ------- 1 37.0 23.1 2 26
- 3.5 37 7 cbr 1000 ------- 1 37.0 23.1 2 26
+ 3.5 24 4 cbr 1000 ------- 1 24.0 29.0 2 27
- 3.5 24 4 cbr 1000 ------- 1 24.0 29.0 2 27
+ 3.5 20 10 cbr 1000 ------- 1 20.0 23.1 2 28
- 3.5 20 10 cbr 1000 ------- 1 20.0 23.1 2 28
+ 3.5 55 5 cbr 1000 ------- 1 55.0 29.0 2 29
- 3.5 55 5 cbr 1000 ------- 1 55.0 29.0 2 29
r 3.51008 62 2 cbr 1000 ------- 1 62.0 23.1 2 20
+ 3.51008 2 0 cbr 1000 ------- 1 62.0 23.1 2 20
- 3.51008 2 0 cbr 1000 ------- 1 62.0 23.1 2 20
r 3.51008 23 3 cbr 1000 ------- 1 23.0 29.0 2 21
+ 3.51008 3 0 cbr 1000 ------- 1 23.0 29.0 2 21
- 3.51008 3 0 cbr 1000 ------- 1 23.0 29.0 2 21
r 3.51008 25 5 cbr 1000 ------- 1 25.0 23.1 2 22
+ 3.51008 5 0 cbr 1000 ------- 1 25.0 23.1 2 22
- 3.51008 5 0 cbr 1000 ------- 1 25.0 23.1 2 22
r 3.51008 76 6 cbr 1000 ------- 1 76.0 29.0 2 23
+ 3.51008 6 0 cbr 1000 ------- 1 76.0 29.0 2 23
- 3.51008 6 0 cbr 1000 ------- 1 76.0 29.0 2 23
r 3.51008 32 2 cbr 1000 ------- 1 32.0 23.1 2 24
+ 3.51008 2 0 cbr 1000 ------- 1 32.0 23.1 2 24
r 3.51008 19 9 cbr 1000 ------- 1 19.0 29.0 2 25
+ 3.51008 9 29 cbr 1000 ------- 1 19.0 29.0 2 25
- 3.51008 9 29 cbr 1000 ------- 1 19.0 29.0 2 25
r 3.51008 37 7 cbr 1000 ------- 1 37.0 23.1 2 26
+ 3.51008 7 0 cbr 1000 ------- 1 37.0 23.1 2 26
- 3.51008 7 0 cbr 1000 ------- 1 37.0 23.1 2 26
r 3.51008 24 4 cbr 1000 ------- 1 24.0 29.0 2 27
+ 3.51008 4 0 cbr 1000 ------- 1 24.0 29.0 2 27
- 3.51008 4 0 cbr 1000 ------- 1 24.0 29.0 2 27
r 3.51008 20 10 cbr 1000 ------- 1 20.0 23.1 2 28
+ 3.51008 10 0 cbr 1000 ------- 1 20.0 23.1 2 28
- 3.51008 10 0 cbr 1000 ------- 1 20.0 23.1 2 28
r 3.51008 55 5 cbr 1000 ------- 1 55.0 29.0 2 29
+ 3.51008 5 0 cbr 1000 ------- 1 55.0 29.0 2 29
- 3.510088 2 0 cbr 1000 ------- 1 32.0 23.1 2 24
- 3.510088 5 0 cbr 1000 ------- 1 55.0 29.0 2 29
r 3.520088 2 0 cbr 1000 ------- 1 62.0 23.1 2 20
+ 3.520088 0 3 cbr 1000 ------- 1 62.0 23.1 2 20
- 3.520088 0 3 cbr 1000 ------- 1 62.0 23.1 2 20
r 3.520088 3 0 cbr 1000 ------- 1 23.0 29.0 2 21
+ 3.520088 0 9 cbr 1000 ------- 1 23.0 29.0 2 21
- 3.520088 0 9 cbr 1000 ------- 1 23.0 29.0 2 21
r 3.520088 5 0 cbr 1000 ------- 1 25.0 23.1 2 22
+ 3.520088 0 3 cbr 1000 ------- 1 25.0 23.1 2 22
r 3.520088 6 0 cbr 1000 ------- 1 76.0 29.0 2 23
+ 3.520088 0 9 cbr 1000 ------- 1 76.0 29.0 2 23
r 3.520088 7 0 cbr 1000 ------- 1 37.0 23.1 2 26
+ 3.520088 0 3 cbr 1000 ------- 1 37.0 23.1 2 26
r 3.520088 4 0 cbr 1000 ------- 1 24.0 29.0 2 27
+ 3.520088 0 9 cbr 1000 ------- 1 24.0 29.0 2 27
r 3.520088 10 0 cbr 1000 ------- 1 20.0 23.1 2 28
+ 3.520088 0 3 cbr 1000 ------- 1 20.0 23.1 2 28
r 3.520096 2 0 cbr 1000 ------- 1 32.0 23.1 2 24
+ 3.520096 0 3 cbr 1000 ------- 1 32.0 23.1 2 24
r 3.520096 5 0 cbr 1000 ------- 1 55.0 29.0 2 29
+ 3.520096 0 9 cbr 1000 ------- 1 55.0 29.0 2 29
- 3.520096 0 3 cbr 1000 ------- 1 25.0 23.1 2 22
- 3.520096 0 9 cbr 1000 ------- 1 76.0 29.0 2 23
- 3.520104 0 3 cbr 1000 ------- 1 37.0 23.1 2 26
- 3.520104 0 9 cbr 1000 ------- 1 24.0 29.0 2 27
- 3.520112 0 3 cbr 1000 ------- 1 20.0 23.1 2 28
- 3.520112 0 9 cbr 1000 ------- 1 55.0 29.0 2 29
- 3.52012 0 3 cbr 1000 ------- 1 32.0 23.1 2 24
r 3.52016 9 29 cbr 1000 ------- 1 19.0 29.0 2 25
r 3.530096 0 3 cbr 1000 ------- 1 62.0 23.1 2 20
+ 3.530096 3 23 cbr 1000 ------- 1 62.0 23.1 2 20
- 3.530096 3 23 cbr 1000 ------- 1 62.0 23.1 2 20
r 3.530096 0 9 cbr 1000 ------- 1 23.0 29.0 2 21
+ 3.530096 9 29 cbr 1000 ------- 1 23.0 29.0 2 21
- 3.530096 9 29 cbr 1000 ------- 1 23.0 29.0 2 21
r 3.530104 0 3 cbr 1000 ------- 1 25.0 23.1 2 22
+ 3.530104 3 23 cbr 1000 ------- 1 25.0 23.1 2 22
r 3.530104 0 9 cbr 1000 ------- 1 76.0 29.0 2 23
+ 3.530104 9 29 cbr 1000 ------- 1 76.0 29.0 2 23
r 3.530112 0 3 cbr 1000 ------- 1 37.0 23.1 2 26
+ 3.530112 3 23 cbr 1000 ------- 1 37.0 23.1 2 26
r 3.530112 0 9 cbr 1000 ------- 1 24.0 29.0 2 27
+ 3.530112 9 29 cbr 1000 ------- 1 24.0 29.0 2 27
r 3.53012 0 3 cbr 1000 ------- 1 20.0 23.1 2 28
+ 3.53012 3 23 cbr 1000 ------- 1 20.0 23.1 2 28
r 3.53012 0 9 cbr 1000 ------- 1 55.0 29.0 2 29
+ 3.53012 9 29 cbr 1000 ------- 1 55.0 29.0 2 29
r 3.530128 0 3 cbr 1000 ------- 1 32.0 23.1 2 24
+ 3.530128 3 23 cbr 1000 ------- 1 32.0 23.1 2 24
- 3.530176 3 23 cbr 1000 ------- 1 25.0 23.1 2 22
- 3.530176 9 29 cbr 1000 ------- 1 76.0 29.0 2 23
- 3.530256 3 23 cbr 1000 ------- 1 37.0 23.1 2 26
- 3.530256 9 29 cbr 1000 ------- 1 24.0 29.0 2 27
- 3.530336 3 23 cbr 1000 ------- 1 20.0 23.1 2 28
- 3.530336 9 29 cbr 1000 ------- 1 55.0 29.0 2 29
- 3.530416 3 23 cbr 1000 ------- 1 32.0 23.1 2 24
r 3.540176 3 23 cbr 1000 ------- 1 62.0 23.1 2 20
r 3.540176 9 29 cbr 1000 ------- 1 23.0 29.0 2 21
r 3.540256 3 23 cbr 1000 ------- 1 25.0 23.1 2 22
r 3.540256 9 29 cbr 1000 ------- 1 76.0 29.0 2 23
r 3.540336 3 23 cbr 1000 ------- 1 37.0 23.1 2 26
r 3.540336 9 29 cbr 1000 ------- 1 24.0 29.0 2 27
r 3.540416 3 23 cbr 1000 ------- 1 20.0 23.1 2 28
r 3.540416 9 29 cbr 1000 ------- 1 55.0 29.0 2 29
r 3.540496 3 23 cbr 1000 ------- 1 32.0 23.1 2 24
+ 4.5 62 2 cbr 1000 ------- 1 62.0 23.1 3 30
- 4.5 62 2 cbr 1000 ------- 1 62.0 23.1 3 30
+ 4.5 23 3 cbr 1000 ------- 1 23.0 29.0 3 31
- 4.5 23 3 cbr 1000 ------- 1 23.0 29.0 3 31
+ 4.5 25 5 cbr 1000 ------- 1 25.0 23.1 3 32
- 4.5 25 5 cbr 1000 ------- 1 25.0 23.1 3 32
+ 4.5 76 6 cbr 1000 ------- 1 76.0 29.0 3 33
- 4.5 76 6 cbr 1000 ------- 1 76.0 29.0 3 33
+ 4.5 32 2 cbr 1000 ------- 1 32.0 23.1 3 34
- 4.5 32 2 cbr 1000 ------- 1 32.0 23.1 3 34
+ 4.5 19 9 cbr 1000 ------- 1 19.0 29.0 3 35
- 4.5 19 9 cbr 1000 ------- 1 19.0 29.0 3 35
+ 4.5 37 7 cbr 1000 ------- 1 37.0 23.1 3 36
- 4.5 37 7 cbr 1000 ------- 1 37.0 23.1 3 36
+ 4.5 24 4 cbr 1000 ------- 1 24.0 29.0 3 37
- 4.5 24 4 cbr 1000 ------- 1 24.0 29.0 3 37
+ 4.5 20 10 cbr 1000 ------- 1 20.0 23.1 3 38
- 4.5 20 10 cbr 1000 ------- 1 20.0 23.1 3 38
+ 4.5 55 5 cbr 1000 ------- 1 55.0 29.0 3 39
- 4.5 55 5 cbr 1000 ------- 1 55.0 29.0 3 39
r 4.51008 62 2 cbr 1000 ------- 1 62.0 23.1 3 30
+ 4.51008 2 0 cbr 1000 ------- 1 62.0 23.1 3 30
- 4.51008 2 0 cbr 1000 ------- 1 62.0 23.1 3 30
r 4.51008 23 3 cbr 1000 ------- 1 23.0 29.0 3 31
+ 4.51008 3 0 cbr 1000 ------- 1 23.0 29.0 3 31
- 4.51008 3 0 cbr 1000 ------- 1 23.0 29.0 3 31
r 4.51008 25 5 cbr 1000 ------- 1 25.0 23.1 3 32
+ 4.51008 5 0 cbr 1000 ------- 1 25.0 23.1 3 32
- 4.51008 5 0 cbr 1000 ------- 1 25.0 23.1 3 32
r 4.51008 76 6 cbr 1000 ------- 1 76.0 29.0 3 33
+ 4.51008 6 0 cbr 1000 ------- 1 76.0 29.0 3 33
- 4.51008 6 0 cbr 1000 ------- 1 76.0 29.0 3 33
r 4.51008 32 2 cbr 1000 ------- 1 32.0 23.1 3 34
+ 4.51008 2 0 cbr 1000 ------- 1 32.0 23.1 3 34
r 4.51008 19 9 cbr 1000 ------- 1 19.0 29.0 3 35
+ 4.51008 9 29 cbr 1000 ------- 1 19.0 29.0 3 35
- 4.51008 9 29 cbr 1000 ------- 1 19.0 29.0 3 35
r 4.51008 37 7 cbr 1000 ------- 1 37.0 23.1 3 36
+ 4.51008 7 0 cbr 1000 ------- 1 37.0 23.1 3 36
- 4.51008 7 0 cbr 1000 ------- 1 37.0 23.1 3 36
r 4.51008 24 4 cbr 1000 ------- 1 24.0 29.0 3 37
+ 4.51008 4 0 cbr 1000 ------- 1 24.0 29.0 3 37
- 4.51008 4 0 cbr 1000 ------- 1 24.0 29.0 3 37
r 4.51008 20 10 cbr 1000 ------- 1 20.0 23.1 3 38
+ 4.51008 10 0 cbr 1000 ------- 1 20.0 23.1 3 38
- 4.51008 10 0 cbr 1000 ------- 1 20.0 23.1 3 38
r 4.51008 55 5 cbr 1000 ------- 1 55.0 29.0 3 39
+ 4.51008 5 0 cbr 1000 ------- 1 55.0 29.0 3 39
- 4.510088 2 0 cbr 1000 ------- 1 32.0 23.1 3 34
- 4.510088 5 0 cbr 1000 ------- 1 55.0 29.0 3 39
r 4.520088 2 0 cbr 1000 ------- 1 62.0 23.1 3 30
+ 4.520088 0 3 cbr 1000 ------- 1 62.0 23.1 3 30
- 4.520088 0 3 cbr 1000 ------- 1 62.0 23.1 3 30
r 4.520088 3 0 cbr 1000 ------- 1 23.0 29.0 3 31
+ 4.520088 0 9 cbr 1000 ------- 1 23.0 29.0 3 31
- 4.520088 0 9 cbr 1000 ------- 1 23.0 29.0 3 31
r 4.520088 5 0 cbr 1000 ------- 1 25.0 23.1 3 32
+ 4.520088 0 3 cbr 1000 ------- 1 25.0 23.1 3 32
r 4.520088 6 0 cbr 1000 ------- 1 76.0 29.0 3 33
+ 4.520088 0 9 cbr 1000 ------- 1 76.0 29.0 3 33
r 4.520088 7 0 cbr 1000 ------- 1 37.0 23.1 3 36
+ 4.520088 0 3 cbr 1000 ------- 1 37.0 23.1 3 36
r 4.520088 4 0 cbr 1000 ------- 1 24.0 29.0 3 37
+ 4.520088 0 9 cbr 1000 ------- 1 24.0 29.0 3 37
r 4.520088 10 0 cbr 1000 ------- 1 20.0 23.1 3 38
+ 4.520088 0 3 cbr 1000 ------- 1 20.0 23.1 3 38
r 4.520096 2 0 cbr 1000 ------- 1 32.0 23.1 3 34
+ 4.520096 0 3 cbr 1000 ------- 1 32.0 23.1 3 34
r 4.520096 5 0 cbr 1000 ------- 1 55.0 29.0 3 39
+ 4.520096 0 9 cbr 1000 ------- 1 55.0 29.0 3 39
- 4.520096 0 3 cbr 1000 ------- 1 25.0 23.1 3 32
- 4.520096 0 9 cbr 1000 ------- 1 76.0 29.0 3 33
- 4.520104 0 3 cbr 1000 ------- 1 37.0 23.1 3 36
- 4.520104 0 9 cbr 1000 ------- 1 24.0 29.0 3 37
- 4.520112 0 3 cbr 1000 ------- 1 20.0 23.1 3 38
- 4.520112 0 9 cbr 1000 ------- 1 55.0 29.0 3 39
- 4.52012 0 3 cbr 1000 ------- 1 32.0 23.1 3 34
r 4.52016 9 29 cbr 1000 ------- 1 19.0 29.0 3 35
r 4.530096 0 3 cbr 1000 ------- 1 62.0 23.1 3 30
+ 4.530096 3 23 cbr 1000 ------- 1 62.0 23.1 3 30
- 4.530096 3 23 cbr 1000 ------- 1 62.0 23.1 3 30
r 4.530096 0 9 cbr 1000 ------- 1 23.0 29.0 3 31
+ 4.530096 9 29 cbr 1000 ------- 1 23.0 29.0 3 31
- 4.530096 9 29 cbr 1000 ------- 1 23.0 29.0 3 31
r 4.530104 0 3 cbr 1000 ------- 1 25.0 23.1 3 32
+ 4.530104 3 23 cbr 1000 ------- 1 25.0 23.1 3 32
r 4.530104 0 9 cbr 1000 ------- 1 76.0 29.0 3 33
+ 4.530104 9 29 cbr 1000 ------- 1 76.0 29.0 3 33
r 4.530112 0 3 cbr 1000 ------- 1 37.0 23.1 3 36
+ 4.530112 3 23 cbr 1000 ------- 1 37.0 23.1 3 36
r 4.530112 0 9 cbr 1000 ------- 1 24.0 29.0 3 37
+ 4.530112 9 29 cbr 1000 ------- 1 24.0 29.0 3 37
r 4.53012 0 3 cbr 1000 ------- 1 20.0 23.1 3 38
+ 4.53012 3 23 cbr 1000 ------- 1 20.0 23.1 3 38
r 4.53012 0 9 cbr 1000 ------- 1 55.0 29.0 3 39
+ 4.53012 9 29 cbr 1000 ------- 1 55.0 29.0 3 39
r 4.530128 0 3 cbr 1000 ------- 1 32.0 23.1 3 34
+ 4.530128 3 23 cbr 1000 ------- 1 32.0 23.1 3 34
- 4.530176 3 23 cbr 1000 ------- 1 25.0 23.1 3 32
- 4.530176 9 29 cbr 1000 ------- 1 76.0 29.0 3 33
- 4.530256 3 23 cbr 1000 ------- 1 37.0 23.1 3 36
- 4.530256 9 29 cbr 1000 ------- 1 24.0 29.0 3 37
- 4.530336 3 23 cbr 1000 ------- 1 20.0 23.1 3 38
- 4.530336 9 29 cbr 1000 ------- 1 55.0 29.0 3 39
- 4.530416 3 23 cbr 1000 ------- 1 32.0 23.1 3 34
r 4.540176 3 23 cbr 1000 ------- 1 62.0 23.1 3 30
r 4.540176 9 29 cbr 1000 ------- 1 23.0 29.0 3 31
r 4.540256 3 23 cbr 1000 ------- 1 25.0 23.1 3 32
r 4.540256 9 29 cbr 1000 ------- 1 76.0 29.0 3 33
r 4.540336 3 23 cbr 1000 ------- 1 37.0 23.1 3 36
r 4.540336 9 29 cbr 1000 ------- 1 24.0 29.0 3 37
r 4.540416 3 23 cbr 1000 ------- 1 20.0 23.1 3 38
r 4.540416 9 29 cbr 1000 ------- 1 55.0 29.0 3 39
r 4.540496 3 23 cbr 1000 ------- 1 32.0 23.1 3 34
+ 5.5 62 2 cbr 1000 ------- 1 62.0 23.1 4 40
- 5.5 62 2 cbr 1000 ------- 1 62.0 23.1 4 40
+ 5.5 23 3 cbr 1000 ------- 1 23.0 29.0 4 41
- 5.5 23 3 cbr 1000 ------- 1 23.0 29.0 4 41
+ 5.5 25 5 cbr 1000 ------- 1 25.0 23.1 4 42
- 5.5 25 5 cbr 1000 ------- 1 25.0 23.1 4 42
+ 5.5 76 6 cbr 1000 ------- 1 76.0 29.0 4 43
- 5.5 76 6 cbr 1000 ------- 1 76.0 29.0 4 43
+ 5.5 32 2 cbr 1000 ------- 1 32.0 23.1 4 44
- 5.5 32 2 cbr 1000 ------- 1 32.0 23.1 4 44
+ 5.5 19 9 cbr 1000 ------- 1 19.0 29.0 4 45
- 5.5 19 9 cbr 1000 ------- 1 19.0 29.0 4 45
+ 5.5 37 7 cbr 1000 ------- 1 37.0 23.1 4 46
- 5.5 37 7 cbr 1000 ------- 1 37.0 23.1 4 46
+ 5.5 24 4 cbr 1000 ------- 1 24.0 29.0 4 47
- 5.5 24 4 cbr 1000 ------- 1 24.0 29.0 4 47
+ 5.5 20 10 cbr 1000 ------- 1 20.0 23.1 4 48
- 5.5 20 10 cbr 1000 ------- 1 20.0 23.1 4 48
+ 5.5 55 5 cbr 1000 ------- 1 55.0 29.0 4 49
- 5.5 55 5 cbr 1000 ------- 1 55.0 29.0 4 49
r 5.51008 62 2 cbr 1000 ------- 1 62.0 23.1 4 40
+ 5.51008 2 0 cbr 1000 ------- 1 62.0 23.1 4 40
- 5.51008 2 0 cbr 1000 ------- 1 62.0 23.1 4 40
r 5.51008 23 3 cbr 1000 ------- 1 23.0 29.0 4 41
+ 5.51008 3 0 cbr 1000 ------- 1 23.0 29.0 4 41
- 5.51008 3 0 cbr 1000 ------- 1 23.0 29.0 4 41
r 5.51008 25 5 cbr 1000 ------- 1 25.0 23.1 4 42
+ 5.51008 5 0 cbr 1000 ------- 1 25.0 23.1 4 42
- 5.51008 5 0 cbr 1000 ------- 1 25.0 23.1 4 42
r 5.51008 76 6 cbr 1000 ------- 1 76.0 29.0 4 43
+ 5.51008 6 0 cbr 1000 ------- 1 76.0 29.0 4 43
- 5.51008 6 0 cbr 1000 ------- 1 76.0 29.0 4 43
r 5.51008 32 2 cbr 1000 ------- 1 32.0 23.1 4 44
+ 5.51008 2 0 cbr 1000 ------- 1 32.0 23.1 4 44
r 5.51008 19 9 cbr 1000 ------- 1 19.0 29.0 4 45
+ 5.51008 9 29 cbr 1000 ------- 1 19.0 29.0 4 45
- 5.51008 9 29 cbr 1000 ------- 1 19.0 29.0 4 45
r 5.51008 37 7 cbr 1000 ------- 1 37.0 23.1 4 46
+ 5.51008 7 0 cbr 1000 ------- 1 37.0 23.1 4 46
- 5.51008 7 0 cbr 1000 ------- 1 37.0 23.1 4 46
r 5.51008 24 4 cbr 1000 ------- 1 24.0 29.0 4 47
+ 5.51008 4 0 cbr 1000 ------- 1 24.0 29.0 4 47
- 5.51008 4 0 cbr 1000 ------- 1 24.0 29.0 4 47
r 5.51008 20 10 cbr 1000 ------- 1 20.0 23.1 4 48
+ 5.51008 10 0 cbr 1000 ------- 1 20.0 23.1 4 48
- 5.51008 10 0 cbr 1000 ------- 1 20.0 23.1 4 48
r 5.51008 55 5 cbr 1000 ------- 1 55.0 29.0 4 49
+ 5.51008 5 0 cbr 1000 ------- 1 55.0 29.0 4 49
- 5.510088 2 0 cbr 1000 ------- 1 32.0 23.1 4 44
- 5.510088 5 0 cbr 1000 ------- 1 55.0 29.0 4 49
r 5.520088 2 0 cbr 1000 ------- 1 62.0 23.1 4 40
+ 5.520088 0 3 cbr 1000 ------- 1 62.0 23.1 4 40
- 5.520088 0 3 cbr 1000 ------- 1 62.0 23.1 4 40
r 5.520088 3 0 cbr 1000 ------- 1 23.0 29.0 4 41
+ 5.520088 0 9 cbr 1000 ------- 1 23.0 29.0 4 41
- 5.520088 0 9 cbr 1000 ------- 1 23.0 29.0 4 41
r 5.520088 5 0 cbr 1000 ------- 1 25.0 23.1 4 42
+ 5.520088 0 3 cbr 1000 ------- 1 25.0 23.1 4 42
r 5.520088 6 0 cbr 1000 ------- 1 76.0 29.0 4 43
+ 5.520088 0 9 cbr 1000 ------- 1 76.0 29.0 4 43
r 5.520088 7 0 cbr 1000 ------- 1 37.0 23.1 4 46
+ 5.520088 0 3 cbr 1000 ------- 1 37.0 23.1 4 46
r 5.520088 4 0 cbr 1000 ------- 1 24.0 29.0 4 47
+ 5.520088 0 9 cbr 1000 ------- 1 24.0 29.0 4 47
r 5.520088 10 0 cbr 1000 ------- 1 20.0 23.1 4 48
+ 5.520088 0 3 cbr 1000 ------- 1 20.0 23.1 4 48
r 5.520096 2 0 cbr 1000 ------- 1 32.0 23.1 4 44
+ 5.520096 0 3 cbr 1000 ------- 1 32.0 23.1 4 44
r 5.520096 5 0 cbr 1000 ------- 1 55.0 29.0 4 49
+ 5.520096 0 9 cbr 1000 ------- 1 55.0 29.0 4 49
- 5.520096 0 3 cbr 1000 ------- 1 25.0 23.1 4 42
- 5.520096 0 9 cbr 1000 ------- 1 76.0 29.0 4 43
- 5.520104 0 3 cbr 1000 ------- 1 37.0 23.1 4 46
- 5.520104 0 9 cbr 1000 ------- 1 24.0 29.0 4 47
- 5.520112 0 3 cbr 1000 ------- 1 20.0 23.1 4 48
- 5.520112 0 9 cbr 1000 ------- 1 55.0 29.0 4 49
- 5.52012 0 3 cbr 1000 ------- 1 32.0 23.1 4 44
r 5.52016 9 29 cbr 1000 ------- 1 19.0 29.0 4 45
r 5.530096 0 3 cbr 1000 ------- 1 62.0 23.1 4 40
+ 5.530096 3 23 cbr 1000 ------- 1 62.0 23.1 4 40
- 5.530096 3 23 cbr 1000 ------- 1 62.0 23.1 4 40
r 5.530096 0 9 cbr 1000 ------- 1 23.0 29.0 4 41
+ 5.530096 9 29 cbr 1000 ------- 1 23.0 29.0 4 41
- 5.530096 9 29 cbr 1000 ------- 1 23.0 29.0 4 41
r 5.530104 0 3 cbr 1000 ------- 1 25.0 23.1 4 42
+ 5.530104 3 23 cbr 1000 ------- 1 25.0 23.1 4 42
r 5.530104 0 9 cbr 1000 ------- 1 76.0 29.0 4 43
+ 5.530104 9 29 cbr 1000 ------- 1 76.0 29.0 4 43
r 5.530112 0 3 cbr 1000 ------- 1 37.0 23.1 4 46
+ 5.530112 3 23 cbr 1000 ------- 1 37.0 23.1 4 46
r 5.530112 0 9 cbr 1000 ------- 1 24.0 29.0 4 47
+ 5.530112 9 29 cbr 1000 ------- 1 24.0 29.0 4 47
r 5.53012 0 3 cbr 1000 ------- 1 20.0 23.1 4 48
+ 5.53012 3 23 cbr 1000 ------- 1 20.0 23.1 4 48
r 5.53012 0 9 cbr 1000 ------- 1 55.0 29.0 4 49
+ 5.53012 9 29 cbr 1000 ------- 1 55.0 29.0 4 49
r 5.530128 0 3 cbr 1000 ------- 1 32.0 23.1 4 44
+ 5.530128 3 23 cbr 1000 ------- 1 32.0 23.1 4 44
- 5.530176 3 23 cbr 1000 ------- 1 25.0 23.1 4 42
- 5.530176 9 29 cbr 1000 ------- 1 76.0 29.0 4 43
- 5.530256 3 23 cbr 1000 ------- 1 37.0 23.1 4 46
- 5.530256 9 29 cbr 1000 ------- 1 24.0 29.0 4 47
- 5.530336 3 23 cbr 1000 ------- 1 20.0 23.1 4 48
- 5.530336 9 29 cbr 1000 ------- 1 55.0 29.0 4 49
- 5.530416 3 23 cbr 1000 ------- 1 32.0 23.1 4 44
r 5.540176 3 23 cbr 1000 ------- 1 62.0 23.1 4 40
r 5.540176 9 29 cbr 1000 ------- 1 23.0 29.0 4 41
r 5.540256 3 23 cbr 1000 ------- 1 25.0 23.1 4 42
r 5.540256 9 29 cbr 1000 ------- 1 76.0 29.0 4 43
r 5.540336 3 23 cbr 1000 ------- 1 37.0 23.1 4 46
r 5.540336 9 29 cbr 1000 ------- 1 24.0 29.0 4 47
r 5.540416 3 23 cbr 1000 ------- 1 20.0 23.1 4 48
r 5.540416 9 29 cbr 1000 ------- 1 55.0 29.0 4 49
r 5.540496 3 23 cbr 1000 ------- 1 32.0 23.1 4 44
+ 6.5 62 2 cbr 1000 ------- 1 62.0 23.1 5 50
- 6.5 62 2 cbr 1000 ------- 1 62.0 23.1 5 50
+ 6.5 23 3 cbr 1000 ------- 1 23.0 29.0 5 51
- 6.5 23 3 cbr 1000 ------- 1 23.0 29.0 5 51
+ 6.5 25 5 cbr 1000 ------- 1 25.0 23.1 5 52
- 6.5 25 5 cbr 1000 ------- 1 25.0 23.1 5 52
+ 6.5 76 6 cbr 1000 ------- 1 76.0 29.0 5 53
- 6.5 76 6 cbr 1000 ------- 1 76.0 29.0 5 53
+ 6.5 32 2 cbr 1000 ------- 1 32.0 23.1 5 54
- 6.5 32 2 cbr 1000 ------- 1 32.0 23.1 5 54
+ 6.5 19 9 cbr 1000 ------- 1 19.0 29.0 5 55
- 6.5 19 9 cbr 1000 ------- 1 19.0 29.0 5 55
+ 6.5 37 7 cbr 1000 ------- 1 37.0 23.1 5 56
- 6.5 37 7 cbr 1000 ------- 1 37.0 23.1 5 56
+ 6.5 24 4 cbr 1000 ------- 1 24.0 29.0 5 57
- 6.5 24 4 cbr 1000 ------- 1 24.0 29.0 5 57
+ 6.5 20 10 cbr 1000 ------- 1 20.0 23.1 5 58
- 6.5 20 10 cbr 1000 ------- 1 20.0 23.1 5 58
+ 6.5 55 5 cbr 1000 ------- 1 55.0 29.0 5 59
- 6.5 55 5 cbr 1000 ------- 1 55.0 29.0 5 59
r 6.51008 62 2 cbr 1000 ------- 1 62.0 23.1 5 50
+ 6.51008 2 0 cbr 1000 ------- 1 62.0 23.1 5 50
- 6.51008 2 0 cbr 1000 ------- 1 62.0 23.1 5 50
r 6.51008 23 3 cbr 1000 ------- 1 23.0 29.0 5 51
+ 6.51008 3 0 cbr 1000 ------- 1 23.0 29.0 5 51
- 6.51008 3 0 cbr 1000 ------- 1 23.0 29.0 5 51
r 6.51008 25 5 cbr 1000 ------- 1 25.0 23.1 5 52
+ 6.51008 5 0 cbr 1000 ------- 1 25.0 23.1 5 52
- 6.51008 5 0 cbr 1000 ------- 1 25.0 23.1 5 52
r 6.51008 76 6 cbr 1000 ------- 1 76.0 29.0 5 53
+ 6.51008 6 0 cbr 1000 ------- 1 76.0 29.0 5 53
- 6.51008 6 0 cbr 1000 ------- 1 76.0 29.0 5 53
r 6.51008 32 2 cbr 1000 ------- 1 32.0 23.1 5 54
+ 6.51008 2 0 cbr 1000 ------- 1 32.0 23.1 5 54
r 6.51008 19 9 cbr 1000 ------- 1 19.0 29.0 5 55
+ 6.51008 9 29 cbr 1000 ------- 1 19.0 29.0 5 55
- 6.51008 9 29 cbr 1000 ------- 1 19.0 29.0 5 55
r 6.51008 37 7 cbr 1000 ------- 1 37.0 23.1 5 56
+ 6.51008 7 0 cbr 1000 ------- 1 37.0 23.1 5 56
- 6.51008 7 0 cbr 1000 ------- 1 37.0 23.1 5 56
r 6.51008 24 4 cbr 1000 ------- 1 24.0 29.0 5 57
+ 6.51008 4 0 cbr 1000 ------- 1 24.0 29.0 5 57
- 6.51008 4 0 cbr 1000 ------- 1 24.0 29.0 5 57
r 6.51008 20 10 cbr 1000 ------- 1 20.0 23.1 5 58
+ 6.51008 10 0 cbr 1000 ------- 1 20.0 23.1 5 58
- 6.51008 10 0 cbr 1000 ------- 1 20.0 23.1 5 58
r 6.51008 55 5 cbr 1000 ------- 1 55.0 29.0 5 59
+ 6.51008 5 0 cbr 1000 ------- 1 55.0 29.0 5 59
- 6.510088 2 0 cbr 1000 ------- 1 32.0 23.1 5 54
- 6.510088 5 0 cbr 1000 ------- 1 55.0 29.0 5 59
r 6.520088 2 0 cbr 1000 ------- 1 62.0 23.1 5 50
+ 6.520088 0 3 cbr 1000 ------- 1 62.0 23.1 5 50
- 6.520088 0 3 cbr 1000 ------- 1 62.0 23.1 5 50